# vtk DataFile Version 2.0
 Flow
 ASCII
 DATASET STRUCTURED_GRID
 FIELD FieldData 1
 TIME 1 1 double
   3.1000000000000000E-004
 DIMENSIONS         101           2           1
 POINTS         202 double
  0.75000000000000000        0.0000000000000000        0.0000000000000000     
  0.75250000000000006        0.0000000000000000        0.0000000000000000     
  0.75500000000000000        0.0000000000000000        0.0000000000000000     
  0.75750000000000006        0.0000000000000000        0.0000000000000000     
  0.76000000000000001        0.0000000000000000        0.0000000000000000     
  0.76250000000000007        0.0000000000000000        0.0000000000000000     
  0.76500000000000001        0.0000000000000000        0.0000000000000000     
  0.76750000000000007        0.0000000000000000        0.0000000000000000     
  0.77000000000000002        0.0000000000000000        0.0000000000000000     
  0.77249999999999996        0.0000000000000000        0.0000000000000000     
  0.77500000000000002        0.0000000000000000        0.0000000000000000     
  0.77749999999999997        0.0000000000000000        0.0000000000000000     
  0.78000000000000003        0.0000000000000000        0.0000000000000000     
  0.78249999999999997        0.0000000000000000        0.0000000000000000     
  0.78500000000000003        0.0000000000000000        0.0000000000000000     
  0.78749999999999998        0.0000000000000000        0.0000000000000000     
  0.79000000000000004        0.0000000000000000        0.0000000000000000     
  0.79249999999999998        0.0000000000000000        0.0000000000000000     
  0.79500000000000004        0.0000000000000000        0.0000000000000000     
  0.79749999999999999        0.0000000000000000        0.0000000000000000     
  0.80000000000000004        0.0000000000000000        0.0000000000000000     
  0.80249999999999999        0.0000000000000000        0.0000000000000000     
  0.80500000000000005        0.0000000000000000        0.0000000000000000     
  0.80750000000000000        0.0000000000000000        0.0000000000000000     
  0.81000000000000005        0.0000000000000000        0.0000000000000000     
  0.81250000000000000        0.0000000000000000        0.0000000000000000     
  0.81500000000000006        0.0000000000000000        0.0000000000000000     
  0.81750000000000000        0.0000000000000000        0.0000000000000000     
  0.82000000000000006        0.0000000000000000        0.0000000000000000     
  0.82250000000000001        0.0000000000000000        0.0000000000000000     
  0.82500000000000007        0.0000000000000000        0.0000000000000000     
  0.82750000000000001        0.0000000000000000        0.0000000000000000     
  0.83000000000000007        0.0000000000000000        0.0000000000000000     
  0.83250000000000002        0.0000000000000000        0.0000000000000000     
  0.83499999999999996        0.0000000000000000        0.0000000000000000     
  0.83750000000000002        0.0000000000000000        0.0000000000000000     
  0.83999999999999997        0.0000000000000000        0.0000000000000000     
  0.84250000000000003        0.0000000000000000        0.0000000000000000     
  0.84499999999999997        0.0000000000000000        0.0000000000000000     
  0.84750000000000003        0.0000000000000000        0.0000000000000000     
  0.84999999999999998        0.0000000000000000        0.0000000000000000     
  0.85250000000000004        0.0000000000000000        0.0000000000000000     
  0.85499999999999998        0.0000000000000000        0.0000000000000000     
  0.85750000000000004        0.0000000000000000        0.0000000000000000     
  0.85999999999999999        0.0000000000000000        0.0000000000000000     
  0.86250000000000004        0.0000000000000000        0.0000000000000000     
  0.86499999999999999        0.0000000000000000        0.0000000000000000     
  0.86750000000000005        0.0000000000000000        0.0000000000000000     
  0.87000000000000000        0.0000000000000000        0.0000000000000000     
  0.87250000000000005        0.0000000000000000        0.0000000000000000     
  0.87500000000000000        0.0000000000000000        0.0000000000000000     
  0.87750000000000006        0.0000000000000000        0.0000000000000000     
  0.88000000000000000        0.0000000000000000        0.0000000000000000     
  0.88250000000000006        0.0000000000000000        0.0000000000000000     
  0.88500000000000001        0.0000000000000000        0.0000000000000000     
  0.88750000000000007        0.0000000000000000        0.0000000000000000     
  0.89000000000000001        0.0000000000000000        0.0000000000000000     
  0.89250000000000007        0.0000000000000000        0.0000000000000000     
  0.89500000000000002        0.0000000000000000        0.0000000000000000     
  0.89749999999999996        0.0000000000000000        0.0000000000000000     
  0.90000000000000002        0.0000000000000000        0.0000000000000000     
  0.90249999999999997        0.0000000000000000        0.0000000000000000     
  0.90500000000000003        0.0000000000000000        0.0000000000000000     
  0.90749999999999997        0.0000000000000000        0.0000000000000000     
  0.91000000000000003        0.0000000000000000        0.0000000000000000     
  0.91249999999999998        0.0000000000000000        0.0000000000000000     
  0.91500000000000004        0.0000000000000000        0.0000000000000000     
  0.91749999999999998        0.0000000000000000        0.0000000000000000     
  0.92000000000000004        0.0000000000000000        0.0000000000000000     
  0.92249999999999999        0.0000000000000000        0.0000000000000000     
  0.92500000000000004        0.0000000000000000        0.0000000000000000     
  0.92749999999999999        0.0000000000000000        0.0000000000000000     
  0.93000000000000005        0.0000000000000000        0.0000000000000000     
  0.93250000000000000        0.0000000000000000        0.0000000000000000     
  0.93500000000000005        0.0000000000000000        0.0000000000000000     
  0.93750000000000000        0.0000000000000000        0.0000000000000000     
  0.94000000000000006        0.0000000000000000        0.0000000000000000     
  0.94250000000000000        0.0000000000000000        0.0000000000000000     
  0.94500000000000006        0.0000000000000000        0.0000000000000000     
  0.94750000000000001        0.0000000000000000        0.0000000000000000     
  0.95000000000000007        0.0000000000000000        0.0000000000000000     
  0.95250000000000001        0.0000000000000000        0.0000000000000000     
  0.95500000000000007        0.0000000000000000        0.0000000000000000     
  0.95750000000000002        0.0000000000000000        0.0000000000000000     
  0.95999999999999996        0.0000000000000000        0.0000000000000000     
  0.96250000000000002        0.0000000000000000        0.0000000000000000     
  0.96499999999999997        0.0000000000000000        0.0000000000000000     
  0.96750000000000003        0.0000000000000000        0.0000000000000000     
  0.96999999999999997        0.0000000000000000        0.0000000000000000     
  0.97250000000000003        0.0000000000000000        0.0000000000000000     
  0.97499999999999998        0.0000000000000000        0.0000000000000000     
  0.97750000000000004        0.0000000000000000        0.0000000000000000     
  0.97999999999999998        0.0000000000000000        0.0000000000000000     
  0.98250000000000004        0.0000000000000000        0.0000000000000000     
  0.98499999999999999        0.0000000000000000        0.0000000000000000     
  0.98750000000000004        0.0000000000000000        0.0000000000000000     
  0.98999999999999999        0.0000000000000000        0.0000000000000000     
  0.99250000000000005        0.0000000000000000        0.0000000000000000     
  0.99500000000000000        0.0000000000000000        0.0000000000000000     
  0.99750000000000005        0.0000000000000000        0.0000000000000000     
   1.0000000000000000        0.0000000000000000        0.0000000000000000     
  0.75000000000000000        1.0000000000000000        0.0000000000000000     
  0.75250000000000006        1.0000000000000000        0.0000000000000000     
  0.75500000000000000        1.0000000000000000        0.0000000000000000     
  0.75750000000000006        1.0000000000000000        0.0000000000000000     
  0.76000000000000001        1.0000000000000000        0.0000000000000000     
  0.76250000000000007        1.0000000000000000        0.0000000000000000     
  0.76500000000000001        1.0000000000000000        0.0000000000000000     
  0.76750000000000007        1.0000000000000000        0.0000000000000000     
  0.77000000000000002        1.0000000000000000        0.0000000000000000     
  0.77249999999999996        1.0000000000000000        0.0000000000000000     
  0.77500000000000002        1.0000000000000000        0.0000000000000000     
  0.77749999999999997        1.0000000000000000        0.0000000000000000     
  0.78000000000000003        1.0000000000000000        0.0000000000000000     
  0.78249999999999997        1.0000000000000000        0.0000000000000000     
  0.78500000000000003        1.0000000000000000        0.0000000000000000     
  0.78749999999999998        1.0000000000000000        0.0000000000000000     
  0.79000000000000004        1.0000000000000000        0.0000000000000000     
  0.79249999999999998        1.0000000000000000        0.0000000000000000     
  0.79500000000000004        1.0000000000000000        0.0000000000000000     
  0.79749999999999999        1.0000000000000000        0.0000000000000000     
  0.80000000000000004        1.0000000000000000        0.0000000000000000     
  0.80249999999999999        1.0000000000000000        0.0000000000000000     
  0.80500000000000005        1.0000000000000000        0.0000000000000000     
  0.80750000000000000        1.0000000000000000        0.0000000000000000     
  0.81000000000000005        1.0000000000000000        0.0000000000000000     
  0.81250000000000000        1.0000000000000000        0.0000000000000000     
  0.81500000000000006        1.0000000000000000        0.0000000000000000     
  0.81750000000000000        1.0000000000000000        0.0000000000000000     
  0.82000000000000006        1.0000000000000000        0.0000000000000000     
  0.82250000000000001        1.0000000000000000        0.0000000000000000     
  0.82500000000000007        1.0000000000000000        0.0000000000000000     
  0.82750000000000001        1.0000000000000000        0.0000000000000000     
  0.83000000000000007        1.0000000000000000        0.0000000000000000     
  0.83250000000000002        1.0000000000000000        0.0000000000000000     
  0.83499999999999996        1.0000000000000000        0.0000000000000000     
  0.83750000000000002        1.0000000000000000        0.0000000000000000     
  0.83999999999999997        1.0000000000000000        0.0000000000000000     
  0.84250000000000003        1.0000000000000000        0.0000000000000000     
  0.84499999999999997        1.0000000000000000        0.0000000000000000     
  0.84750000000000003        1.0000000000000000        0.0000000000000000     
  0.84999999999999998        1.0000000000000000        0.0000000000000000     
  0.85250000000000004        1.0000000000000000        0.0000000000000000     
  0.85499999999999998        1.0000000000000000        0.0000000000000000     
  0.85750000000000004        1.0000000000000000        0.0000000000000000     
  0.85999999999999999        1.0000000000000000        0.0000000000000000     
  0.86250000000000004        1.0000000000000000        0.0000000000000000     
  0.86499999999999999        1.0000000000000000        0.0000000000000000     
  0.86750000000000005        1.0000000000000000        0.0000000000000000     
  0.87000000000000000        1.0000000000000000        0.0000000000000000     
  0.87250000000000005        1.0000000000000000        0.0000000000000000     
  0.87500000000000000        1.0000000000000000        0.0000000000000000     
  0.87750000000000006        1.0000000000000000        0.0000000000000000     
  0.88000000000000000        1.0000000000000000        0.0000000000000000     
  0.88250000000000006        1.0000000000000000        0.0000000000000000     
  0.88500000000000001        1.0000000000000000        0.0000000000000000     
  0.88750000000000007        1.0000000000000000        0.0000000000000000     
  0.89000000000000001        1.0000000000000000        0.0000000000000000     
  0.89250000000000007        1.0000000000000000        0.0000000000000000     
  0.89500000000000002        1.0000000000000000        0.0000000000000000     
  0.89749999999999996        1.0000000000000000        0.0000000000000000     
  0.90000000000000002        1.0000000000000000        0.0000000000000000     
  0.90249999999999997        1.0000000000000000        0.0000000000000000     
  0.90500000000000003        1.0000000000000000        0.0000000000000000     
  0.90749999999999997        1.0000000000000000        0.0000000000000000     
  0.91000000000000003        1.0000000000000000        0.0000000000000000     
  0.91249999999999998        1.0000000000000000        0.0000000000000000     
  0.91500000000000004        1.0000000000000000        0.0000000000000000     
  0.91749999999999998        1.0000000000000000        0.0000000000000000     
  0.92000000000000004        1.0000000000000000        0.0000000000000000     
  0.92249999999999999        1.0000000000000000        0.0000000000000000     
  0.92500000000000004        1.0000000000000000        0.0000000000000000     
  0.92749999999999999        1.0000000000000000        0.0000000000000000     
  0.93000000000000005        1.0000000000000000        0.0000000000000000     
  0.93250000000000000        1.0000000000000000        0.0000000000000000     
  0.93500000000000005        1.0000000000000000        0.0000000000000000     
  0.93750000000000000        1.0000000000000000        0.0000000000000000     
  0.94000000000000006        1.0000000000000000        0.0000000000000000     
  0.94250000000000000        1.0000000000000000        0.0000000000000000     
  0.94500000000000006        1.0000000000000000        0.0000000000000000     
  0.94750000000000001        1.0000000000000000        0.0000000000000000     
  0.95000000000000007        1.0000000000000000        0.0000000000000000     
  0.95250000000000001        1.0000000000000000        0.0000000000000000     
  0.95500000000000007        1.0000000000000000        0.0000000000000000     
  0.95750000000000002        1.0000000000000000        0.0000000000000000     
  0.95999999999999996        1.0000000000000000        0.0000000000000000     
  0.96250000000000002        1.0000000000000000        0.0000000000000000     
  0.96499999999999997        1.0000000000000000        0.0000000000000000     
  0.96750000000000003        1.0000000000000000        0.0000000000000000     
  0.96999999999999997        1.0000000000000000        0.0000000000000000     
  0.97250000000000003        1.0000000000000000        0.0000000000000000     
  0.97499999999999998        1.0000000000000000        0.0000000000000000     
  0.97750000000000004        1.0000000000000000        0.0000000000000000     
  0.97999999999999998        1.0000000000000000        0.0000000000000000     
  0.98250000000000004        1.0000000000000000        0.0000000000000000     
  0.98499999999999999        1.0000000000000000        0.0000000000000000     
  0.98750000000000004        1.0000000000000000        0.0000000000000000     
  0.98999999999999999        1.0000000000000000        0.0000000000000000     
  0.99250000000000005        1.0000000000000000        0.0000000000000000     
  0.99500000000000000        1.0000000000000000        0.0000000000000000     
  0.99750000000000005        1.0000000000000000        0.0000000000000000     
   1.0000000000000000        1.0000000000000000        0.0000000000000000     
 CELL_DATA         100
 SCALARS u double
 LOOKUP_TABLE default
   1.8997650861774732E-017   1.0058630793507291E-018   5.1759218187447290E-020   2.6911237207047650E-021   1.3927097818665408E-022   7.2202595479731244E-024   3.7396562097050322E-025   1.9373781681763398E-026   1.0033681420716909E-027   5.1953519301046621E-029   2.6887802469320900E-030   1.3904863345658987E-031   7.1818706151399077E-033   3.7022780459445119E-034   1.9029861612578889E-035   9.7403665426745674E-037   4.9566059439029225E-038   2.5028679208139520E-039   1.2515102692903899E-040   6.1840032900442129E-042   3.0139516181013717E-043   1.4469043927196428E-044   6.8378197299857948E-046   3.1822452442297748E-047   1.4605452928254841E-048   6.6265701258142235E-050   2.9804940998580878E-051   1.3324268675338579E-052   5.9297950975473880E-054   2.6271465526961367E-055   1.1568924873266329E-056   5.0501555053363453E-058   2.1787936134025508E-059   9.2659940126797474E-061   3.8775518162041308E-062   1.5953242296417599E-063   6.4528745040816845E-065   2.5673603629907775E-066   1.0054467707698687E-067   3.8784401517831415E-069   1.4742579564117370E-070   5.5230811582108374E-072   2.0391422426187853E-073   7.4176203211732836E-075   2.6575835037987878E-076   9.3746906147879563E-078   3.2547823400245641E-079   1.1118478878232896E-080   3.7361083396831808E-082   1.2347606143940538E-083   4.0136616328844447E-085   1.2834620556481627E-086   4.0391401980054214E-088   1.2517412203153877E-089   3.8225988542347752E-091   1.1510941237244331E-092   3.4197121780902009E-094   1.0025014308741025E-095   2.8994620505024156E-097   8.2684000917685736E-099   2.3225132149936150E-100   6.4172602303377045E-102   1.7415130150124924E-103   4.6342508159327181E-105   1.2072658939038115E-106   3.0742065631066779E-108   7.6414238683476174E-110   1.8519022514335088E-111   4.3717449498248630E-113   1.0045713988161831E-114   2.2459481000961826E-116   4.8844839232020219E-118   1.0333265505244364E-119   2.1268177800857248E-121   4.2600744279709414E-123   8.3067255869985793E-125   1.5771394072439734E-126   2.9158671243498483E-128   5.2485938068541972E-130   9.1934320778269046E-132   1.5656663662531254E-133   2.5892659839203820E-135   4.1517089766236726E-137   6.4420949764349328E-139   9.6522890621738578E-141   1.3930999563304068E-142   1.9317020935138744E-144   2.5662183430581167E-146   3.2567879200486291E-148   3.9369508659620473E-150   4.5201589956386792E-152   4.9155003604700452E-154   5.0498616400999825E-156   4.8896310479706050E-158   4.4532665572219275E-160   3.8085233661181214E-162   3.0543771711972987E-164   2.2945333084985009E-166   1.6128749536637309E-168   1.0657636599299037E-170
 SCALARS v double
 LOOKUP_TABLE default
   0.0000000000000000        0.0000000000000000        0.0000000000000000        0.0000000000000000        0.0000000000000000        0.0000000000000000        0.0000000000000000        0.0000000000000000        0.0000000000000000        0.0000000000000000        0.0000000000000000        0.0000000000000000        0.0000000000000000        0.0000000000000000        0.0000000000000000        0.0000000000000000        0.0000000000000000        0.0000000000000000        0.0000000000000000        0.0000000000000000        0.0000000000000000        0.0000000000000000        0.0000000000000000        0.0000000000000000        0.0000000000000000        0.0000000000000000        0.0000000000000000        0.0000000000000000        0.0000000000000000        0.0000000000000000        0.0000000000000000        0.0000000000000000        0.0000000000000000        0.0000000000000000        0.0000000000000000        0.0000000000000000        0.0000000000000000        0.0000000000000000        0.0000000000000000        0.0000000000000000        0.0000000000000000        0.0000000000000000        0.0000000000000000        0.0000000000000000        0.0000000000000000        0.0000000000000000        0.0000000000000000        0.0000000000000000        0.0000000000000000        0.0000000000000000        0.0000000000000000        0.0000000000000000        0.0000000000000000        0.0000000000000000        0.0000000000000000        0.0000000000000000        0.0000000000000000        0.0000000000000000        0.0000000000000000        0.0000000000000000        0.0000000000000000        0.0000000000000000        0.0000000000000000        0.0000000000000000        0.0000000000000000        0.0000000000000000        0.0000000000000000        0.0000000000000000        0.0000000000000000        0.0000000000000000        0.0000000000000000        0.0000000000000000        0.0000000000000000        0.0000000000000000        0.0000000000000000        0.0000000000000000        0.0000000000000000        0.0000000000000000        0.0000000000000000        0.0000000000000000        0.0000000000000000        0.0000000000000000        0.0000000000000000        0.0000000000000000        0.0000000000000000        0.0000000000000000        0.0000000000000000        0.0000000000000000        0.0000000000000000        0.0000000000000000        0.0000000000000000        0.0000000000000000        0.0000000000000000        0.0000000000000000        0.0000000000000000        0.0000000000000000        0.0000000000000000        0.0000000000000000        0.0000000000000000        0.0000000000000000     
 SCALARS rho double
 LOOKUP_TABLE default
  0.12500000000000000       0.12500000000000000       0.12500000000000000       0.12500000000000000       0.12500000000000000       0.12500000000000000       0.12500000000000000       0.12500000000000000       0.12500000000000000       0.12500000000000000       0.12500000000000000       0.12500000000000000       0.12500000000000000       0.12500000000000000       0.12500000000000000       0.12500000000000000       0.12500000000000000       0.12500000000000000       0.12500000000000000       0.12500000000000000       0.12500000000000000       0.12500000000000000       0.12500000000000000       0.12500000000000000       0.12500000000000000       0.12500000000000000       0.12500000000000000       0.12500000000000000       0.12500000000000000       0.12500000000000000       0.12500000000000000       0.12500000000000000       0.12500000000000000       0.12500000000000000       0.12500000000000000       0.12500000000000000       0.12500000000000000       0.12500000000000000       0.12500000000000000       0.12500000000000000       0.12500000000000000       0.12500000000000000       0.12500000000000000       0.12500000000000000       0.12500000000000000       0.12500000000000000       0.12500000000000000       0.12500000000000000       0.12500000000000000       0.12500000000000000       0.12500000000000000       0.12500000000000000       0.12500000000000000       0.12500000000000000       0.12500000000000000       0.12500000000000000       0.12500000000000000       0.12500000000000000       0.12500000000000000       0.12500000000000000       0.12500000000000000       0.12500000000000000       0.12500000000000000       0.12500000000000000       0.12500000000000000       0.12500000000000000       0.12500000000000000       0.12500000000000000       0.12500000000000000       0.12500000000000000       0.12500000000000000       0.12500000000000000       0.12500000000000000       0.12500000000000000       0.12500000000000000       0.12500000000000000       0.12500000000000000       0.12500000000000000       0.12500000000000000       0.12500000000000000       0.12500000000000000       0.12500000000000000       0.12500000000000000       0.12500000000000000       0.12500000000000000       0.12500000000000000       0.12500000000000000       0.12500000000000000       0.12500000000000000       0.12500000000000000       0.12500000000000000       0.12500000000000000       0.12500000000000000       0.12500000000000000       0.12500000000000000       0.12500000000000000       0.12500000000000000       0.12500000000000000       0.12500000000000000       0.12500000000000000     
 SCALARS z double
 LOOKUP_TABLE default
   1.0000000000000000        1.0000000000000000        1.0000000000000000        1.0000000000000000        1.0000000000000000        1.0000000000000000        1.0000000000000000        1.0000000000000000        1.0000000000000000        1.0000000000000000        1.0000000000000000        1.0000000000000000        1.0000000000000000        1.0000000000000000        1.0000000000000000        1.0000000000000000        1.0000000000000000        1.0000000000000000        1.0000000000000000        1.0000000000000000        1.0000000000000000        1.0000000000000000        1.0000000000000000        1.0000000000000000        1.0000000000000000        1.0000000000000000        1.0000000000000000        1.0000000000000000        1.0000000000000000        1.0000000000000000        1.0000000000000000        1.0000000000000000        1.0000000000000000        1.0000000000000000        1.0000000000000000        1.0000000000000000        1.0000000000000000        1.0000000000000000        1.0000000000000000        1.0000000000000000        1.0000000000000000        1.0000000000000000        1.0000000000000000        1.0000000000000000        1.0000000000000000        1.0000000000000000        1.0000000000000000        1.0000000000000000        1.0000000000000000        1.0000000000000000        1.0000000000000000        1.0000000000000000        1.0000000000000000        1.0000000000000000        1.0000000000000000        1.0000000000000000        1.0000000000000000        1.0000000000000000        1.0000000000000000        1.0000000000000000        1.0000000000000000        1.0000000000000000        1.0000000000000000        1.0000000000000000        1.0000000000000000        1.0000000000000000        1.0000000000000000        1.0000000000000000        1.0000000000000000        1.0000000000000000        1.0000000000000000        1.0000000000000000        1.0000000000000000        1.0000000000000000        1.0000000000000000        1.0000000000000000        1.0000000000000000        1.0000000000000000        1.0000000000000000        1.0000000000000000        1.0000000000000000        1.0000000000000000        1.0000000000000000        1.0000000000000000        1.0000000000000000        1.0000000000000000        1.0000000000000000        1.0000000000000000        1.0000000000000000        1.0000000000000000        1.0000000000000000        1.0000000000000000        1.0000000000000000        1.0000000000000000        1.0000000000000000        1.0000000000000000        1.0000000000000000        1.0000000000000000        1.0000000000000000        1.0000000000000000     
 SCALARS p double
 LOOKUP_TABLE default
   10000.000000000000        10000.000000000000        10000.000000000000        10000.000000000000        10000.000000000000        10000.000000000000        10000.000000000000        10000.000000000000        10000.000000000000        10000.000000000000        10000.000000000000        10000.000000000000        10000.000000000000        10000.000000000000        10000.000000000000        10000.000000000000        10000.000000000000        10000.000000000000        10000.000000000000        10000.000000000000        10000.000000000000        10000.000000000000        10000.000000000000        10000.000000000000        10000.000000000000        10000.000000000000        10000.000000000000        10000.000000000000        10000.000000000000        10000.000000000000        10000.000000000000        10000.000000000000        10000.000000000000        10000.000000000000        10000.000000000000        10000.000000000000        10000.000000000000        10000.000000000000        10000.000000000000        10000.000000000000        10000.000000000000        10000.000000000000        10000.000000000000        10000.000000000000        10000.000000000000        10000.000000000000        10000.000000000000        10000.000000000000        10000.000000000000        10000.000000000000        10000.000000000000        10000.000000000000        10000.000000000000        10000.000000000000        10000.000000000000        10000.000000000000        10000.000000000000        10000.000000000000        10000.000000000000        10000.000000000000        10000.000000000000        10000.000000000000        10000.000000000000        10000.000000000000        10000.000000000000        10000.000000000000        10000.000000000000        10000.000000000000        10000.000000000000        10000.000000000000        10000.000000000000        10000.000000000000        10000.000000000000        10000.000000000000        10000.000000000000        10000.000000000000        10000.000000000000        10000.000000000000        10000.000000000000        10000.000000000000        10000.000000000000        10000.000000000000        10000.000000000000        10000.000000000000        10000.000000000000        10000.000000000000        10000.000000000000        10000.000000000000        10000.000000000000        10000.000000000000        10000.000000000000        10000.000000000000        10000.000000000000        10000.000000000000        10000.000000000000        10000.000000000000        10000.000000000000        10000.000000000000        10000.000000000000        10000.000000000000     
 SCALARS c double
 LOOKUP_TABLE default