# vtk DataFile Version 2.0
 Flow
 ASCII
 DATASET STRUCTURED_GRID
 FIELD FieldData 1
 TIME 1 1 double
   3.1000000000000000E-004
 DIMENSIONS         667           2           1
 POINTS        1334 double
  0.66700000000000004        0.0000000000000000        0.0000000000000000     
  0.66725000000000001        0.0000000000000000        0.0000000000000000     
  0.66749999999999998        0.0000000000000000        0.0000000000000000     
  0.66775000000000007        0.0000000000000000        0.0000000000000000     
  0.66800000000000004        0.0000000000000000        0.0000000000000000     
  0.66825000000000001        0.0000000000000000        0.0000000000000000     
  0.66849999999999998        0.0000000000000000        0.0000000000000000     
  0.66875000000000007        0.0000000000000000        0.0000000000000000     
  0.66900000000000004        0.0000000000000000        0.0000000000000000     
  0.66925000000000001        0.0000000000000000        0.0000000000000000     
  0.66949999999999998        0.0000000000000000        0.0000000000000000     
  0.66975000000000007        0.0000000000000000        0.0000000000000000     
  0.67000000000000004        0.0000000000000000        0.0000000000000000     
  0.67025000000000001        0.0000000000000000        0.0000000000000000     
  0.67049999999999998        0.0000000000000000        0.0000000000000000     
  0.67075000000000007        0.0000000000000000        0.0000000000000000     
  0.67100000000000004        0.0000000000000000        0.0000000000000000     
  0.67125000000000001        0.0000000000000000        0.0000000000000000     
  0.67149999999999999        0.0000000000000000        0.0000000000000000     
  0.67175000000000007        0.0000000000000000        0.0000000000000000     
  0.67200000000000004        0.0000000000000000        0.0000000000000000     
  0.67225000000000001        0.0000000000000000        0.0000000000000000     
  0.67249999999999999        0.0000000000000000        0.0000000000000000     
  0.67274999999999996        0.0000000000000000        0.0000000000000000     
  0.67300000000000004        0.0000000000000000        0.0000000000000000     
  0.67325000000000002        0.0000000000000000        0.0000000000000000     
  0.67349999999999999        0.0000000000000000        0.0000000000000000     
  0.67374999999999996        0.0000000000000000        0.0000000000000000     
  0.67400000000000004        0.0000000000000000        0.0000000000000000     
  0.67425000000000002        0.0000000000000000        0.0000000000000000     
  0.67449999999999999        0.0000000000000000        0.0000000000000000     
  0.67474999999999996        0.0000000000000000        0.0000000000000000     
  0.67500000000000004        0.0000000000000000        0.0000000000000000     
  0.67525000000000002        0.0000000000000000        0.0000000000000000     
  0.67549999999999999        0.0000000000000000        0.0000000000000000     
  0.67574999999999996        0.0000000000000000        0.0000000000000000     
  0.67600000000000005        0.0000000000000000        0.0000000000000000     
  0.67625000000000002        0.0000000000000000        0.0000000000000000     
  0.67649999999999999        0.0000000000000000        0.0000000000000000     
  0.67674999999999996        0.0000000000000000        0.0000000000000000     
  0.67700000000000005        0.0000000000000000        0.0000000000000000     
  0.67725000000000002        0.0000000000000000        0.0000000000000000     
  0.67749999999999999        0.0000000000000000        0.0000000000000000     
  0.67774999999999996        0.0000000000000000        0.0000000000000000     
  0.67800000000000005        0.0000000000000000        0.0000000000000000     
  0.67825000000000002        0.0000000000000000        0.0000000000000000     
  0.67849999999999999        0.0000000000000000        0.0000000000000000     
  0.67874999999999996        0.0000000000000000        0.0000000000000000     
  0.67900000000000005        0.0000000000000000        0.0000000000000000     
  0.67925000000000002        0.0000000000000000        0.0000000000000000     
  0.67949999999999999        0.0000000000000000        0.0000000000000000     
  0.67974999999999997        0.0000000000000000        0.0000000000000000     
  0.68000000000000005        0.0000000000000000        0.0000000000000000     
  0.68025000000000002        0.0000000000000000        0.0000000000000000     
  0.68049999999999999        0.0000000000000000        0.0000000000000000     
  0.68074999999999997        0.0000000000000000        0.0000000000000000     
  0.68100000000000005        0.0000000000000000        0.0000000000000000     
  0.68125000000000002        0.0000000000000000        0.0000000000000000     
  0.68149999999999999        0.0000000000000000        0.0000000000000000     
  0.68174999999999997        0.0000000000000000        0.0000000000000000     
  0.68200000000000005        0.0000000000000000        0.0000000000000000     
  0.68225000000000002        0.0000000000000000        0.0000000000000000     
  0.68250000000000000        0.0000000000000000        0.0000000000000000     
  0.68274999999999997        0.0000000000000000        0.0000000000000000     
  0.68300000000000005        0.0000000000000000        0.0000000000000000     
  0.68325000000000002        0.0000000000000000        0.0000000000000000     
  0.68350000000000000        0.0000000000000000        0.0000000000000000     
  0.68374999999999997        0.0000000000000000        0.0000000000000000     
  0.68400000000000005        0.0000000000000000        0.0000000000000000     
  0.68425000000000002        0.0000000000000000        0.0000000000000000     
  0.68450000000000000        0.0000000000000000        0.0000000000000000     
  0.68474999999999997        0.0000000000000000        0.0000000000000000     
  0.68500000000000005        0.0000000000000000        0.0000000000000000     
  0.68525000000000003        0.0000000000000000        0.0000000000000000     
  0.68550000000000000        0.0000000000000000        0.0000000000000000     
  0.68574999999999997        0.0000000000000000        0.0000000000000000     
  0.68600000000000005        0.0000000000000000        0.0000000000000000     
  0.68625000000000003        0.0000000000000000        0.0000000000000000     
  0.68650000000000000        0.0000000000000000        0.0000000000000000     
  0.68674999999999997        0.0000000000000000        0.0000000000000000     
  0.68700000000000006        0.0000000000000000        0.0000000000000000     
  0.68725000000000003        0.0000000000000000        0.0000000000000000     
  0.68750000000000000        0.0000000000000000        0.0000000000000000     
  0.68774999999999997        0.0000000000000000        0.0000000000000000     
  0.68800000000000006        0.0000000000000000        0.0000000000000000     
  0.68825000000000003        0.0000000000000000        0.0000000000000000     
  0.68850000000000000        0.0000000000000000        0.0000000000000000     
  0.68874999999999997        0.0000000000000000        0.0000000000000000     
  0.68900000000000006        0.0000000000000000        0.0000000000000000     
  0.68925000000000003        0.0000000000000000        0.0000000000000000     
  0.68950000000000000        0.0000000000000000        0.0000000000000000     
  0.68974999999999997        0.0000000000000000        0.0000000000000000     
  0.69000000000000006        0.0000000000000000        0.0000000000000000     
  0.69025000000000003        0.0000000000000000        0.0000000000000000     
  0.69050000000000000        0.0000000000000000        0.0000000000000000     
  0.69074999999999998        0.0000000000000000        0.0000000000000000     
  0.69100000000000006        0.0000000000000000        0.0000000000000000     
  0.69125000000000003        0.0000000000000000        0.0000000000000000     
  0.69150000000000000        0.0000000000000000        0.0000000000000000     
  0.69174999999999998        0.0000000000000000        0.0000000000000000     
  0.69200000000000006        0.0000000000000000        0.0000000000000000     
  0.69225000000000003        0.0000000000000000        0.0000000000000000     
  0.69250000000000000        0.0000000000000000        0.0000000000000000     
  0.69274999999999998        0.0000000000000000        0.0000000000000000     
  0.69300000000000006        0.0000000000000000        0.0000000000000000     
  0.69325000000000003        0.0000000000000000        0.0000000000000000     
  0.69350000000000001        0.0000000000000000        0.0000000000000000     
  0.69374999999999998        0.0000000000000000        0.0000000000000000     
  0.69400000000000006        0.0000000000000000        0.0000000000000000     
  0.69425000000000003        0.0000000000000000        0.0000000000000000     
  0.69450000000000001        0.0000000000000000        0.0000000000000000     
  0.69474999999999998        0.0000000000000000        0.0000000000000000     
  0.69500000000000006        0.0000000000000000        0.0000000000000000     
  0.69525000000000003        0.0000000000000000        0.0000000000000000     
  0.69550000000000001        0.0000000000000000        0.0000000000000000     
  0.69574999999999998        0.0000000000000000        0.0000000000000000     
  0.69600000000000006        0.0000000000000000        0.0000000000000000     
  0.69625000000000004        0.0000000000000000        0.0000000000000000     
  0.69650000000000001        0.0000000000000000        0.0000000000000000     
  0.69674999999999998        0.0000000000000000        0.0000000000000000     
  0.69700000000000006        0.0000000000000000        0.0000000000000000     
  0.69725000000000004        0.0000000000000000        0.0000000000000000     
  0.69750000000000001        0.0000000000000000        0.0000000000000000     
  0.69774999999999998        0.0000000000000000        0.0000000000000000     
[...]
 CELL_DATA         666
 SCALARS u double
 LOOKUP_TABLE default
   293.30163667766203        293.30150432172439        293.30116248596596        293.30039314330298        293.29875214278974        293.29533471107152        293.28829780150170        293.27388726350921        293.24445688780077        293.18443632158318        293.06213108744242        292.81307557006636        292.30635831221167        291.27700331645246        289.19226305574387        284.99576746055698        276.65290105637854        260.48433628149115        230.74998889702454        181.64402166628605        116.05990320081378        55.162822360527869        19.729494613680313        5.9551753604573543        1.6788647027848271       0.46309968347057451       0.12694381388259071        3.4737073046582523E-002   9.5009586871750915E-003   2.5982730029631123E-003   7.1053671180875528E-004   1.9430498194866316E-004   5.3134929531039274E-005   1.4530343600096571E-005   3.9734842447922013E-006   1.0865932619316135E-006   2.9714093463145742E-007   8.1256475328276631E-008   2.2220498560276153E-008   6.0764766757079089E-009   1.6617074344901082E-009   4.5442444186763098E-010   1.2428559908349956E-010   3.3998516513222642E-011   9.3180265753857978E-012   2.5478061240316773E-012   7.2618272186410892E-013   2.2619265943081441E-013   6.7867553641172156E-014   6.8471605544718234E-015   4.5854086077257329E-016   2.9770014011541458E-017   2.0079740523465945E-018   1.2231752817139290E-019   6.8462380953989967E-021   3.7149579231419169E-022   2.0652866507711760E-023   1.1884144107349886E-024   7.0502828437883120E-026   4.2604922588836142E-027   2.5770305755721490E-028   1.5391672532786681E-029   9.0313247642436945E-031   5.2263649484598005E-032   3.0109268722176436E-033   1.7432345151974038E-034   1.0191282725061106E-035   6.0086141486906993E-037   3.5551391564364168E-038   2.1002427888018174E-039   1.2352371327704872E-040   7.2315943513834519E-042   4.2222801963730886E-043   2.4650434553408558E-044   1.4418870370456101E-045   8.4553280782883627E-047   4.9672132925595672E-048   2.9193794115932534E-049   1.7145284924370196E-050   1.0056413196657215E-051   5.8920565410294037E-053   3.4505623550133105E-054   2.0211766130711233E-055   1.1846331904833536E-056   6.9476281192283078E-058   4.0760986012264977E-059   2.3914028801739384E-060   1.4026490398503838E-061   8.2244285044272847E-063   4.8213766886635454E-064   2.8263744276981939E-065   1.6571366739326020E-066   9.7184717095438030E-068   5.7010057120044383E-069   3.3450379804482407E-070   1.9630562867731991E-071   1.1522715930347730E-072   6.7655529012377615E-074   3.9740614272056954E-075   2.3356722227809583E-076   1.3736982473949157E-077   8.0856123798693853E-079   4.7631845788090545E-080   2.8083241827995683E-081   1.6570978893226045E-082   9.7852014214964953E-084   5.7818181081906868E-085   3.4179531912919966E-086   2.0211153895804275E-087   1.1952037464350016E-088   7.0666678875925109E-090   4.1764600442475298E-091   2.4668030044484119E-092   1.4558783062621645E-093   8.5849407112246608E-095   5.0577187877132648E-096   2.9770429343301757E-097   1.7508799365059752E-098   1.0289882450106912E-099   6.0436198680268315E-101   3.5478784095042669E-102   2.0819724708687007E-103   1.2214059489171480E-104   7.1640800943277496E-106   4.2015023079324108E-107   2.4638444787523476E-108   1.4447765772577437E-109   8.4718049011163387E-111   4.9675766788026756E-112   2.9127938915771918E-113   1.7079422738480313E-114   1.0014649352534792E-115   5.8721590255377245E-117   3.4431777358954274E-118   2.0189266200250346E-119   1.1838069409011655E-120   6.9412913116659678E-122   4.0700388277151438E-123   2.3864683983407193E-124   1.3993030214886193E-125   8.2047816228886537E-127   4.8108496398669150E-128   2.8208271158232448E-129   1.6539851363429855E-130   9.6981255656421562E-132   5.6865102446963351E-133   3.3343148314425380E-134   1.9551104771312370E-135   1.1464137506279408E-136   6.7223124842767112E-138   3.9418994856022364E-139   2.3115581706017563E-140   1.3555643320652108E-141   7.9497942523589224E-143   4.6624853393032039E-144   2.7347105513607995E-145   1.6041507629099241E-146   9.4108268391987090E-148   5.5216547124490967E-149   3.2402670291641943E-150   1.9018430823694619E-151   1.1165131978388677E-152   6.5563436796233593E-154   3.8510710529250328E-155   2.2627469757924050E-156   1.3299536112257883E-157   7.8197426127401229E-159   4.5995001199561670E-160   2.7064150757292062E-161   1.5931005622636200E-162   9.3810618898168019E-164   5.5260033975359964E-165   3.2561634629859920E-166   1.9191908951373281E-167   1.1314203708154769E-168   6.6710955287656911E-170   3.9337671524919198E-171   2.3196793508414606E-172   1.3678051072513272E-173   8.0643131107885047E-175   4.7536726822293957E-176   2.8014612335980184E-177   1.6504858973824252E-178   9.7206113233281168E-180   5.7229144890779437E-181   3.3680225556080870E-182   1.9813609084810586E-183   1.1651563757016133E-184   6.8492323044541489E-186   4.0248056105646201E-187   2.3643082065179990E-188   1.3884559287130909E-189   8.1515973391998461E-191   4.7846501304107338E-192   2.8078158333163458E-193   1.6474473281919415E-194   9.6647696860301816E-196   5.6691753277645829E-197   3.3251151090389332E-198   1.9501162773390726E-199   1.1436380540903226E-200   6.7065151932763932E-202   3.9326948589153260E-203   2.3060695394659601E-204   1.3522166979868337E-205   7.9289224886795178E-207   4.6491944744269832E-208   2.7260773193403859E-209   1.5984405109823824E-210   9.3724546826197172E-212   5.4955270030014849E-213   3.2222923727066231E-214   1.8893854926266748E-215   1.1078390812759252E-216   6.4958162151089847E-218   3.8088357891694618E-219   2.2333297961420714E-220   1.3095325253094968E-221   7.6786239548282275E-223   4.5025154119895108E-224   2.6401762136317205E-225   1.5481673987618367E-226   9.0784528702212035E-228   5.3237365414049253E-229   3.1220091590681477E-230   1.8309103408868462E-231   1.0737864299282132E-232   6.2978101462922073E-234   3.6939001405828118E-235   2.1667458248020896E-236   1.2710465089903424E-237   7.4567408477510709E-239   4.3749614409230199E-240   2.5670851277584713E-241   1.5064342708319863E-242   8.8411056702829260E-244   5.1893324906665189E-245   3.0462551433960788E-246   1.7884277781518976E-247   1.0500897216318698E-248   6.1663718592004009E-250   3.6214174639946942E-251   2.1270080258047637E-252   1.2493847952752456E-253   7.3392828719024481E-255   4.3115569511279702E-256   2.5329677215255569E-257   1.4880980550711268E-258   8.7424029808763483E-260   5.1359227087261990E-261   3.0170733449127185E-262   1.7722501812717493E-263   1.0409480585275520E-264   6.1135355930019889E-266   3.5901398340032037E-267   2.1080646974387600E-268   1.2376857579560662E-269   7.2659631317342292E-271   4.2651764044443899E-272   2.5035059300076992E-273   1.4693891288514567E-274   8.6240648082927629E-276   5.0615777576357489E-277   2.9707842617322955E-278   1.7437353869101855E-279   1.0235925958375743E-280   6.0092868080178665E-282   3.5284092082641493E-283   2.0720704279113023E-284   1.2170457992214110E-285   7.1497542147545735E-287   4.2010655610706684E-288   2.4689464564616706E-289   1.4512586077138166E-290   8.5320501877824845E-292   5.0168333769165348E-293   2.9502843045492062E-294   1.7351802369657893E-295   1.0206087115088663E-296   6.0033626831859430E-298   3.5313186405149765E-299   2.0771734911325460E-300   1.2217693901883255E-301   7.1857858984565372E-303   4.2258786449219507E-304   2.4848950941454239E-305   1.4609641189015611E-306   8.5882632886907059E-308   5.0477872788508207E-309   2.9663605242560512E-310   1.7429019705091312E-311   1.0238789536663464E-312   6.0138527200676921E-314   3.5317389817526345E-315   2.0737682172080812E-316   1.2175121372085003E-317   7.1473512589978090E-319   4.1896766767337707E-320   2.4505656033725829E-321   1.1857575500189917E-322   0.0000000000000000        0.0000000000000000        0.0000000000000000        0.0000000000000000        0.0000000000000000        0.0000000000000000        0.0000000000000000        0.0000000000000000        0.0000000000000000        0.0000000000000000        0.0000000000000000        0.0000000000000000        0.0000000000000000        0.0000000000000000        0.0000000000000000        0.0000000000000000        0.0000000000000000        0.0000000000000000        0.0000000000000000        0.0000000000000000        0.0000000000000000        0.0000000000000000        0.0000000000000000        0.0000000000000000        0.0000000000000000        0.0000000000000000        0.0000000000000000        0.0000000000000000        0.0000000000000000        0.0000000000000000        0.0000000000000000        0.0000000000000000        0.0000000000000000        0.0000000000000000        0.0000000000000000        0.0000000000000000        0.0000000000000000        0.0000000000000000        0.0000000000000000        0.0000000000000000        0.0000000000000000        0.0000000000000000        0.0000000000000000        0.0000000000000000        0.0000000000000000        0.0000000000000000        0.0000000000000000        0.0000000000000000        0.0000000000000000        0.0000000000000000        0.0000000000000000        0.0000000000000000        0.0000000000000000        0.0000000000000000        0.0000000000000000        0.0000000000000000        0.0000000000000000        0.0000000000000000        0.0000000000000000        0.0000000000000000        0.0000000000000000        0.0000000000000000        0.0000000000000000        0.0000000000000000        0.0000000000000000        0.0000000000000000        0.0000000000000000        0.0000000000000000        0.0000000000000000        0.0000000000000000        0.0000000000000000        0.0000000000000000        0.0000000000000000        0.0000000000000000        0.0000000000000000        0.0000000000000000        0.0000000000000000        0.0000000000000000        0.0000000000000000        0.0000000000000000        0.0000000000000000        0.0000000000000000        0.0000000000000000        0.0000000000000000        0.0000000000000000        0.0000000000000000        0.0000000000000000        0.0000000000000000        0.0000000000000000        0.0000000000000000        0.0000000000000000        0.0000000000000000        0.0000000000000000        0.0000000000000000        0.0000000000000000        0.0000000000000000        0.0000000000000000        0.0000000000000000        0.0000000000000000        0.0000000000000000        0.0000000000000000        0.0000000000000000        0.0000000000000000        0.0000000000000000        0.0000000000000000        0.0000000000000000        0.0000000000000000        0.0000000000000000        0.0000000000000000        0.0000000000000000        0.0000000000000000        0.0000000000000000        0.0000000000000000        0.0000000000000000        0.0000000000000000        0.0000000000000000        0.0000000000000000        0.0000000000000000        0.0000000000000000        0.0000000000000000        0.0000000000000000        0.0000000000000000        0.0000000000000000        0.0000000000000000        0.0000000000000000        0.0000000000000000        0.0000000000000000        0.0000000000000000        0.0000000000000000        0.0000000000000000        0.0000000000000000        0.0000000000000000        0.0000000000000000        0.0000000000000000        0.0000000000000000        0.0000000000000000        0.0000000000000000        0.0000000000000000        0.0000000000000000        0.0000000000000000        0.0000000000000000        0.0000000000000000        0.0000000000000000        0.0000000000000000        0.0000000000000000        0.0000000000000000        0.0000000000000000        0.0000000000000000        0.0000000000000000        0.0000000000000000        0.0000000000000000        0.0000000000000000        0.0000000000000000        0.0000000000000000        0.0000000000000000        0.0000000000000000        0.0000000000000000        0.0000000000000000        0.0000000000000000        0.0000000000000000        0.0000000000000000        0.0000000000000000        0.0000000000000000        0.0000000000000000        0.0000000000000000        0.0000000000000000        0.0000000000000000        0.0000000000000000        0.0000000000000000        0.0000000000000000        0.0000000000000000        0.0000000000000000        0.0000000000000000        0.0000000000000000        0.0000000000000000        0.0000000000000000        0.0000000000000000        0.0000000000000000        0.0000000000000000        0.0000000000000000        0.0000000000000000        0.0000000000000000        0.0000000000000000        0.0000000000000000        0.0000000000000000        0.0000000000000000        0.0000000000000000        0.0000000000000000        0.0000000000000000        0.0000000000000000        0.0000000000000000        0.0000000000000000        0.0000000000000000        0.0000000000000000        0.0000000000000000        0.0000000000000000        0.0000000000000000        0.0000000000000000        0.0000000000000000        0.0000000000000000        0.0000000000000000        0.0000000000000000        0.0000000000000000        0.0000000000000000        0.0000000000000000        0.0000000000000000        0.0000000000000000        0.0000000000000000        0.0000000000000000        0.0000000000000000        0.0000000000000000        0.0000000000000000        0.0000000000000000        0.0000000000000000        0.0000000000000000        0.0000000000000000        0.0000000000000000        0.0000000000000000        0.0000000000000000        0.0000000000000000        0.0000000000000000        0.0000000000000000        0.0000000000000000        0.0000000000000000        0.0000000000000000        0.0000000000000000        0.0000000000000000        0.0000000000000000        0.0000000000000000        0.0000000000000000        0.0000000000000000        0.0000000000000000        0.0000000000000000        0.0000000000000000        0.0000000000000000        0.0000000000000000        0.0000000000000000        0.0000000000000000        0.0000000000000000        0.0000000000000000        0.0000000000000000        0.0000000000000000        0.0000000000000000        0.0000000000000000        0.0000000000000000        0.0000000000000000        0.0000000000000000        0.0000000000000000        0.0000000000000000        0.0000000000000000        0.0000000000000000        0.0000000000000000        0.0000000000000000        0.0000000000000000        0.0000000000000000        0.0000000000000000        0.0000000000000000        0.0000000000000000        0.0000000000000000        0.0000000000000000        0.0000000000000000        0.0000000000000000        0.0000000000000000        0.0000000000000000        0.0000000000000000        0.0000000000000000        0.0000000000000000        0.0000000000000000        0.0000000000000000        0.0000000000000000        0.0000000000000000        0.0000000000000000        0.0000000000000000        0.0000000000000000        0.0000000000000000        0.0000000000000000        0.0000000000000000        0.0000000000000000        0.0000000000000000        0.0000000000000000        0.0000000000000000        0.0000000000000000        0.0000000000000000        0.0000000000000000        0.0000000000000000        0.0000000000000000        0.0000000000000000        0.0000000000000000        0.0000000000000000        0.0000000000000000        0.0000000000000000        0.0000000000000000        0.0000000000000000        0.0000000000000000        0.0000000000000000        0.0000000000000000        0.0000000000000000        0.0000000000000000        0.0000000000000000        0.0000000000000000        0.0000000000000000        0.0000000000000000        0.0000000000000000        0.0000000000000000        0.0000000000000000        0.0000000000000000        0.0000000000000000        0.0000000000000000        0.0000000000000000        0.0000000000000000        0.0000000000000000        0.0000000000000000        0.0000000000000000        0.0000000000000000        0.0000000000000000        0.0000000000000000        0.0000000000000000        0.0000000000000000        0.0000000000000000        0.0000000000000000        0.0000000000000000        0.0000000000000000        0.0000000000000000        0.0000000000000000        0.0000000000000000        0.0000000000000000        0.0000000000000000        0.0000000000000000        0.0000000000000000        0.0000000000000000        0.0000000000000000        0.0000000000000000        0.0000000000000000        0.0000000000000000        0.0000000000000000        0.0000000000000000        0.0000000000000000        0.0000000000000000        0.0000000000000000        0.0000000000000000        0.0000000000000000        0.0000000000000000        0.0000000000000000        0.0000000000000000        0.0000000000000000        0.0000000000000000        0.0000000000000000        0.0000000000000000        0.0000000000000000        0.0000000000000000        0.0000000000000000        0.0000000000000000        0.0000000000000000        0.0000000000000000        0.0000000000000000        0.0000000000000000        0.0000000000000000        0.0000000000000000        0.0000000000000000        0.0000000000000000        0.0000000000000000        0.0000000000000000        0.0000000000000000        0.0000000000000000        0.0000000000000000        0.0000000000000000     
 SCALARS v double
 LOOKUP_TABLE default