# vtk DataFile Version 2.0
 Flow
 ASCII
 DATASET STRUCTURED_GRID
 FIELD FieldData 1
 TIME 1 1 double
   3.1000000000000000E-004
 DIMENSIONS         668           2           1
 POINTS        1336 double
  0.33350000000000002        0.0000000000000000        0.0000000000000000     
  0.33374999999999999        0.0000000000000000        0.0000000000000000     
  0.33400000000000002        0.0000000000000000        0.0000000000000000     
  0.33424999999999999        0.0000000000000000        0.0000000000000000     
  0.33450000000000002        0.0000000000000000        0.0000000000000000     
  0.33474999999999999        0.0000000000000000        0.0000000000000000     
  0.33500000000000002        0.0000000000000000        0.0000000000000000     
  0.33524999999999999        0.0000000000000000        0.0000000000000000     
  0.33550000000000002        0.0000000000000000        0.0000000000000000     
  0.33574999999999999        0.0000000000000000        0.0000000000000000     
  0.33600000000000002        0.0000000000000000        0.0000000000000000     
  0.33624999999999999        0.0000000000000000        0.0000000000000000     
  0.33650000000000002        0.0000000000000000        0.0000000000000000     
  0.33674999999999999        0.0000000000000000        0.0000000000000000     
  0.33700000000000002        0.0000000000000000        0.0000000000000000     
  0.33724999999999999        0.0000000000000000        0.0000000000000000     
  0.33750000000000002        0.0000000000000000        0.0000000000000000     
  0.33774999999999999        0.0000000000000000        0.0000000000000000     
  0.33800000000000002        0.0000000000000000        0.0000000000000000     
  0.33825000000000000        0.0000000000000000        0.0000000000000000     
  0.33850000000000002        0.0000000000000000        0.0000000000000000     
  0.33875000000000000        0.0000000000000000        0.0000000000000000     
  0.33900000000000002        0.0000000000000000        0.0000000000000000     
  0.33925000000000000        0.0000000000000000        0.0000000000000000     
  0.33950000000000002        0.0000000000000000        0.0000000000000000     
  0.33975000000000000        0.0000000000000000        0.0000000000000000     
  0.34000000000000002        0.0000000000000000        0.0000000000000000     
  0.34025000000000000        0.0000000000000000        0.0000000000000000     
  0.34050000000000002        0.0000000000000000        0.0000000000000000     
  0.34075000000000000        0.0000000000000000        0.0000000000000000     
  0.34100000000000003        0.0000000000000000        0.0000000000000000     
  0.34125000000000000        0.0000000000000000        0.0000000000000000     
  0.34150000000000003        0.0000000000000000        0.0000000000000000     
  0.34175000000000000        0.0000000000000000        0.0000000000000000     
  0.34200000000000003        0.0000000000000000        0.0000000000000000     
  0.34225000000000000        0.0000000000000000        0.0000000000000000     
  0.34250000000000003        0.0000000000000000        0.0000000000000000     
  0.34275000000000000        0.0000000000000000        0.0000000000000000     
  0.34300000000000003        0.0000000000000000        0.0000000000000000     
  0.34325000000000000        0.0000000000000000        0.0000000000000000     
  0.34350000000000003        0.0000000000000000        0.0000000000000000     
  0.34375000000000000        0.0000000000000000        0.0000000000000000     
  0.34400000000000003        0.0000000000000000        0.0000000000000000     
  0.34425000000000000        0.0000000000000000        0.0000000000000000     
  0.34450000000000003        0.0000000000000000        0.0000000000000000     
  0.34475000000000000        0.0000000000000000        0.0000000000000000     
  0.34500000000000003        0.0000000000000000        0.0000000000000000     
  0.34525000000000000        0.0000000000000000        0.0000000000000000     
  0.34550000000000003        0.0000000000000000        0.0000000000000000     
  0.34575000000000000        0.0000000000000000        0.0000000000000000     
  0.34600000000000003        0.0000000000000000        0.0000000000000000     
  0.34625000000000000        0.0000000000000000        0.0000000000000000     
  0.34650000000000003        0.0000000000000000        0.0000000000000000     
  0.34675000000000000        0.0000000000000000        0.0000000000000000     
  0.34700000000000003        0.0000000000000000        0.0000000000000000     
  0.34725000000000000        0.0000000000000000        0.0000000000000000     
  0.34750000000000003        0.0000000000000000        0.0000000000000000     
  0.34775000000000000        0.0000000000000000        0.0000000000000000     
  0.34800000000000003        0.0000000000000000        0.0000000000000000     
  0.34825000000000000        0.0000000000000000        0.0000000000000000     
  0.34850000000000003        0.0000000000000000        0.0000000000000000     
  0.34875000000000000        0.0000000000000000        0.0000000000000000     
  0.34900000000000003        0.0000000000000000        0.0000000000000000     
  0.34925000000000000        0.0000000000000000        0.0000000000000000     
  0.34950000000000003        0.0000000000000000        0.0000000000000000     
  0.34975000000000001        0.0000000000000000        0.0000000000000000     
  0.35000000000000003        0.0000000000000000        0.0000000000000000     
  0.35025000000000001        0.0000000000000000        0.0000000000000000     
  0.35050000000000003        0.0000000000000000        0.0000000000000000     
  0.35075000000000001        0.0000000000000000        0.0000000000000000     
  0.35100000000000003        0.0000000000000000        0.0000000000000000     
  0.35125000000000001        0.0000000000000000        0.0000000000000000     
  0.35150000000000003        0.0000000000000000        0.0000000000000000     
  0.35175000000000001        0.0000000000000000        0.0000000000000000     
  0.35199999999999998        0.0000000000000000        0.0000000000000000     
  0.35225000000000001        0.0000000000000000        0.0000000000000000     
  0.35249999999999998        0.0000000000000000        0.0000000000000000     
  0.35275000000000001        0.0000000000000000        0.0000000000000000     
  0.35299999999999998        0.0000000000000000        0.0000000000000000     
  0.35325000000000001        0.0000000000000000        0.0000000000000000     
  0.35349999999999998        0.0000000000000000        0.0000000000000000     
  0.35375000000000001        0.0000000000000000        0.0000000000000000     
  0.35399999999999998        0.0000000000000000        0.0000000000000000     
  0.35425000000000001        0.0000000000000000        0.0000000000000000     
  0.35449999999999998        0.0000000000000000        0.0000000000000000     
  0.35475000000000001        0.0000000000000000        0.0000000000000000     
  0.35499999999999998        0.0000000000000000        0.0000000000000000     
  0.35525000000000001        0.0000000000000000        0.0000000000000000     
  0.35549999999999998        0.0000000000000000        0.0000000000000000     
  0.35575000000000001        0.0000000000000000        0.0000000000000000     
  0.35599999999999998        0.0000000000000000        0.0000000000000000     
  0.35625000000000001        0.0000000000000000        0.0000000000000000     
  0.35649999999999998        0.0000000000000000        0.0000000000000000     
  0.35675000000000001        0.0000000000000000        0.0000000000000000     
  0.35699999999999998        0.0000000000000000        0.0000000000000000     
  0.35725000000000001        0.0000000000000000        0.0000000000000000     
  0.35749999999999998        0.0000000000000000        0.0000000000000000     
  0.35775000000000001        0.0000000000000000        0.0000000000000000     
  0.35799999999999998        0.0000000000000000        0.0000000000000000     
  0.35825000000000001        0.0000000000000000        0.0000000000000000     
  0.35849999999999999        0.0000000000000000        0.0000000000000000     
  0.35875000000000001        0.0000000000000000        0.0000000000000000     
  0.35899999999999999        0.0000000000000000        0.0000000000000000     
  0.35925000000000001        0.0000000000000000        0.0000000000000000     
  0.35949999999999999        0.0000000000000000        0.0000000000000000     
  0.35975000000000001        0.0000000000000000        0.0000000000000000     
  0.35999999999999999        0.0000000000000000        0.0000000000000000     
  0.36025000000000001        0.0000000000000000        0.0000000000000000     
  0.36049999999999999        0.0000000000000000        0.0000000000000000     
  0.36075000000000002        0.0000000000000000        0.0000000000000000     
  0.36099999999999999        0.0000000000000000        0.0000000000000000     
  0.36125000000000002        0.0000000000000000        0.0000000000000000     
  0.36149999999999999        0.0000000000000000        0.0000000000000000     
  0.36175000000000002        0.0000000000000000        0.0000000000000000     
  0.36199999999999999        0.0000000000000000        0.0000000000000000     
  0.36225000000000002        0.0000000000000000        0.0000000000000000     
  0.36249999999999999        0.0000000000000000        0.0000000000000000     
  0.36275000000000002        0.0000000000000000        0.0000000000000000     
  0.36299999999999999        0.0000000000000000        0.0000000000000000     
  0.36325000000000002        0.0000000000000000        0.0000000000000000     
  0.36349999999999999        0.0000000000000000        0.0000000000000000     
  0.36375000000000002        0.0000000000000000        0.0000000000000000     
  0.36399999999999999        0.0000000000000000        0.0000000000000000     
  0.36425000000000002        0.0000000000000000        0.0000000000000000     
[...]
 CELL_DATA         667
 SCALARS u double
 LOOKUP_TABLE default
   2.3786135622838150E-053   2.1069492403811679E-052   1.8664060943832076E-051   1.6533171697846923E-050   1.4644414387490675E-049   1.2969556000216028E-048   1.1484319461435618E-047   1.0167926265759773E-046   9.0024095989008046E-046   7.9718122899315054E-045   7.0614540634774811E-044   6.2574537550750056E-043   5.5466186710001311E-042   4.9166898247212757E-041   4.3568047040145799E-040   3.8579569378654708E-039   3.4132252127544760E-038   3.0176152203287512E-037   2.6674884675573674E-036   2.3597068686573201E-035   2.0907582155371173E-034   1.8561893045763537E-033   1.6506046539005420E-032   1.4682726090351728E-031   1.3040916757769410E-030   1.1544721895530286E-029   1.0177256209931358E-028   8.9381686013286488E-028   7.8367146015661639E-027   6.8843344266683839E-026   6.0890238645930486E-025   5.4483563901501769E-024   4.9364790952872760E-023   4.4942252421885429E-022   4.0491055755038365E-021   3.5653980011189314E-020   3.0612272218196458E-019   2.5544178616572286E-018   2.1633135925747746E-017   1.9975452626685704E-016   1.8790853657787319E-015   1.4637495197573850E-014   7.9992399154879799E-014   1.3165740975413494E-013   2.3684692842641008E-013   3.2116512499509518E-013   4.2971343040989353E-013   5.6501041352926418E-013   6.5429088324227807E-013   7.2003026290517276E-013   8.4456539253314479E-013   1.0247102547172379E-012   1.2678277508249563E-012   1.6504360684975180E-012   2.2076793282812790E-012   3.0166852301646163E-012   4.2270554239754053E-012   5.9964497223791762E-012   8.4951457443071368E-012   1.2007819289475189E-011   1.7037842465579168E-011   2.4179056826985881E-011   3.4345517078626057E-011   4.8660053078591175E-011   6.8887672855124435E-011   9.7352510242987891E-011   1.3726676011817785E-010   1.9314126563842512E-010   2.7114122077792843E-010   3.7976789584069013E-010   5.3071248329131020E-010   7.3995678568565781E-010   1.0293458149311155E-009   1.4286120951955544E-009   1.9782296034553452E-009   2.7329236934380606E-009   3.7667756816143280E-009   5.1796700752224729E-009   7.1060253391352117E-009   9.7261877070834147E-009   1.3281468244711989E-008   1.8094119553245047E-008   2.4593194822305560E-008   3.3348567616019640E-008   4.5115273330117474E-008   6.0890987192293464E-008   8.1990649678137483E-008   1.1014298840530956E-007   1.4761455338461761E-007   1.9736963367875243E-007   2.6327487295412988E-007   3.5036055204130224E-007   4.6515388564015025E-007   6.1610211225693554E-007   8.1410844274155446E-007   1.0732087705615178E-006   1.4114239321382181E-006   1.8518293210742108E-006   2.4238935648192547E-006   3.1651488427269456E-006   4.1232686715243205E-006   5.3586440491491014E-006   6.9475687441853243E-006   8.9861640021038370E-006   1.1595200175242140E-005   1.4926000635063116E-005   1.9167647935839488E-005   2.4555751108808045E-005   3.1383076493248389E-005   4.0012396211808441E-005   5.0891964543872633E-005   6.4574096162340550E-005   8.1737391257428739E-005   1.0321323156905614E-004   1.3001725530425938E-004   1.6338661414351318E-004   2.0482391341122432E-004   2.5614884348330554E-004   3.1955862112447207E-004   3.9769847397201613E-004   4.9374351807816147E-004   6.1149349265270548E-004   7.5548192847674504E-004   9.3110142871412110E-004   1.1447468331731365E-003   1.4039781092654400E-003   1.7177048644676813E-003   2.0963943945031412E-003   2.5523051649590542E-003   3.0997475623207168E-003   3.7553736358257863E-003   4.5384973743922046E-003   5.4714468190385623E-003   6.5799489853066041E-003   7.8935481643506861E-003   9.4460576712247953E-003   1.1276044514601033E-002   1.3427345771305157E-002   1.5949614658799537E-002   1.8898893417220074E-002   2.2338209142538781E-002   2.6338187669265687E-002   3.0977679498021177E-002   3.6344390622976439E-002   4.2535509962346660E-002   4.9658323961430550E-002   5.7830807860369260E-002   6.7182182133685431E-002   7.7853421760764735E-002   8.9997705319971394E-002  0.10378079045637574       0.11938130209968018       0.13699091994294058       0.15681445216859735       0.17906978325083370       0.20398768489102584       0.23181148075573640       0.26279655767926763       0.29720971833713616       0.33532837305508290       0.37743957133728040       0.42383887680286814       0.47482909243979643       0.53071884632137489       0.59182105108898031       0.65845125348819189       0.73092589295221899       0.80956049056798940       0.89466779165309540       0.98655588655033910        1.0855263350579396        1.1918723201305401        1.3058768560961711        1.4278110756543472        1.5579326183772173        1.6964841413912126        1.8436919704278485        1.9997649065974303        2.1648932011323008        2.3392477070822109        2.5229792136059008        2.7162179651974072        2.9190733649911835        3.1316338582962331        3.3539669897710307        3.5861196252334180        3.8281183270315662        4.0799698702150167        4.3416618854429814        4.6131636136552281        4.8944267569857987        5.1853864102077507        5.4859620571167689        5.7960586166675334        6.1155675243162486        6.4443678348656555        6.7823273341026429        7.1293036476329812        7.4851453365005023        7.8496929704116143        8.2227801706200676        8.6042346157530574        8.9938790050361828        9.3915319745045149        9.7970089628334520        10.210123024395333        10.630685588028459        11.058507160789718        11.493397976660491        11.935168590772706        12.383630420239578        12.838596233098292        13.299880587226465        13.767300221364437        14.240674400591804        14.719825218750172        15.204577860409577        15.694760825020987        16.190206115917849        16.690749396801678        17.196230118305664        17.706491617153265        18.221381190345678        18.740750146703441        19.264453837980476        19.792351671642777        20.324307107285481        20.860187638528835        21.399864762114003        21.943213935786993        22.490114526443808        23.040449749884203        23.594106603414208        24.150975792421402        24.710951651951600        25.273932064209653        25.839818372824041        26.408515294621488        26.979930829585953        27.553976169595231        28.130565606468252        28.709616439785542        29.291048884896583        29.874785981466857        30.460753502878564        31.048879866746955        31.639096046783976        32.231335486197175        32.825534012788403        33.421629755879806        34.019563065178701        34.619276431660346        35.220714410537269        35.823823546357190        36.428552300264080        37.034850979435241        37.642671668703876        38.251968164356875        38.862695910098083        39.474811935150548        40.088274794473634        40.703044511055921        41.319082520249978        41.936351616101796        42.554815899633176        43.174440729025257        43.795192671656885        44.417039457942067        45.039949936918831        45.663894033531527        46.288842707558310        46.914767914125463        47.541642565760945        48.169440495929116        48.798136424000518        49.427705921600214        50.058125380289802        50.689371980529287        51.321423661875414        51.954259094365547        52.587857651045880        53.222199381595438        53.857264987007468        54.493035795282246        55.129493738095626        55.766621328399680        56.404401638922828        57.042818281528334        57.681855387401008        58.321497588023711        58.961729996915857        59.602538192098187        60.243908199258229        60.885826475583414        61.528279894238302        62.171255729454657        62.814741642213924        63.458725666492938        64.103196196052721        64.748141971745312        65.393552069319966        66.039415887704010        66.685723137743025        67.332463831376700        67.979628271236848        68.627207040645359        69.275190994000184        69.923571247528557        70.572339170396475        71.221486376156292        71.871004714521419        72.520886263451217        73.171123321537365        73.821708400675078        74.472634219011510        75.123893694156109        75.775479936646150        76.427386243652791        77.079606092922702        77.732133136940206        78.384961197306907        79.038084259324094        79.691496466775220        80.345192116895902        80.999165655527534        81.653411672443582        82.307924896846103        82.962700193020694        83.617732556148482        84.273017108264398        84.928549094360477        85.584323878623906        86.240336940809158        86.896583872734908        87.553060374902998        88.209762253235667        88.866685415922959        89.523825870380833        90.181179720310595        90.838743162860865        91.496512485883528        92.154484065283853        92.812654362458474        93.471019921820130        94.129577368403332        94.788323405551566        95.447254812678281        96.106368443103989        96.765661221961963        97.425130144174005        98.084772272490284        98.744584735594216        99.404564726266074        100.06470949960809        100.72501637132312        101.38548271605107        102.04610596575493        102.70688360816004        103.36781318524010        104.02889229175253        104.69011857381699        105.35148972754001        106.01300349767978        106.67465767635409        107.33645010178516        107.99837865708511        108.66044126907559        109.32263590714510        109.98496058213861        110.64741334528206        111.30999228713671        111.97269553658647        112.63552125985278        113.29846765954045        113.96153297370918        114.62471547497393        115.28801346962901        115.95142529679966        116.61494932761536        117.27858396440922        117.94232763993715        118.60617881662156        119.27013598581409        119.93419766708065        120.59836240750437        121.26262878100989        121.92699538770361        122.59146085323448        123.25602382816973        123.92068298738977        124.58543702949665        125.25028467624099        125.91522467196158        126.58025578304203        127.24537679737934        127.91058652386855        128.57588379189863        129.24126745086329        129.90673636968233        130.57228943633686        131.23792555741457        131.90364365766854        132.56944267958434        133.23532158296038        133.90127934449629        134.56731495739365        135.23342743096370        135.89961579024740        136.56587907564119        137.23221634253517        137.89862666095638        138.56510911522307        139.23166280360473        139.89828683799206        140.56498034357165        141.23174245851101        141.89857233364791        142.56546913218813        143.23243202940876        143.89946021236929        144.56655287962673        145.23370924095866        145.90092851709031        146.56820993942910        147.23555274980228        147.90295620020211        148.57041955253371        149.23794207836980        149.90552305870847        150.57316178373688        151.24085755259787        151.90860967316198        152.57641746180215        153.24428024317459        153.91219735000030        154.58016812285263        155.24819190994717        155.91626806693526        156.58439595670032        157.25257494915803        157.92080442105797        158.58908375578989        159.25741234319062        159.92578957935561        160.59421486645053        161.26268761252749        161.93120723134106        162.59977314216897        163.26838476963150        163.93704154351605        164.60574289860025        165.27448827447947        165.94327711539270        166.61210887005305        167.28098299147632        167.94989893681310        168.61885616717990        169.28785414749302        169.95689234630072        170.62597023561889        171.29508729076434        171.96424299019026        172.63343681532180        173.30266825039016        173.97193678226924        174.64124190030932        175.31058309617302        175.97995986366848        176.64937169858436        177.31881809852172        177.98829856272712        178.65781259192329        179.32735968813995        179.99693935454158        180.66655109525612        181.33619441519937        182.00586881990048        182.67557381532256        183.34530890768391        184.01507360327497        184.68486740827402        185.35468982855915        186.02454036951880        186.69441853585749        187.36432383139999        188.03425575888997        188.70421381978764        189.37419751406054        190.04420633997213        190.71423979386452        191.38429736993803        192.05437856002339        192.72448285335133        193.39460973631384        194.06475869222186        194.73492920105426        195.40512073920277        196.07533277920692        196.74556478948409        197.41581623405028        198.08608657223328        198.75637525837604        199.42668174153255        200.09700546515191        200.76734586675425        201.43770237759387        202.10807442231271        202.77846141858041        203.44886277672285        204.11927789933603        204.78970618088772        205.46014700730169        206.13059975552915        206.80106379310132        207.47153847766609        208.14202315650499        208.81251716603197        209.48301983127081        210.15353046531146        210.82404836874272        211.49457282906226        212.16510312005880        212.83563850116960        213.50617821680746        214.17672149565956        214.84726754995185        215.51781557468234        216.18836474681569        216.85891422444246        217.52946314589568        218.20001062882704        218.87055576923578        219.54109764045137        220.21163529206285        220.88216774879672        221.55269400933452        222.22321304507162        222.89372379880868        223.56422518337516        224.23471608017829        224.90519533767434        225.57566176975374        226.24611415403993        226.91655123008934        227.58697169749234        228.25737421386285        228.92775739271306        229.59811980120224        230.26845995775366        230.93877632952643        231.60906732973598        232.27933131480921        232.94956658136365        233.61977136299612        234.28994382686963        234.96008207007853        235.63018411578051        236.30024790907203        236.97027131259173        237.64025210182655        238.31018796009960        238.98007647321305        239.64991512371694        240.31970128477494        240.98943221359224        241.65910504436678        242.32871678072846        242.99826428761511        243.66774428254183        244.33715332620545        245.00648781236862        245.67574395695320        246.34491778627665        247.01400512434464        247.68300157911636        248.35190252764252        249.02070309996594        249.68939816166508        250.35798229490604        251.02644977785113        251.69479456225932        252.36301024908815        253.03109006189223        253.69902681777981        254.36681289566917        255.03444020154512        255.70190013038825        256.36918352439966        257.03628062710044        257.70318103282949        258.36987363109807        259.03634654518964        259.70258706430974        260.36858156849274        261.03431544536414        261.69977299772762        262.36493734079681        263.02979028772086        263.69431222185068        264.35848195396147        265.02227656236846        265.68567121356187        266.34863896060142        267.01115051608173        267.67317399595146        268.33467462986505        268.99561443301684        269.65595183355902        270.31564124867822        270.97463260121305        271.63287076724072        272.29029494336254        272.94683792035806        273.60242524743592        274.25697426837195        274.91039300731535        275.56257887782203        276.21341718363198        276.86277937363923        277.51052100626731        278.15647936979667        278.80047069489279        279.44228688337682        280.08169166293715        280.71841606077595        281.35215307004290        281.98255136141171        282.60920786880104        283.23165905414771        283.84937063347951        284.46172552915493        285.06800980750478        285.66739637758957        286.25892628156629        286.84148752460408        287.41379160794651        287.97434829226472        288.52143969564571        289.05309570149103        289.56707390055897        290.06084898018366        290.53161858711968        290.97633504079113        291.39177435994162        291.77465491014544        292.12181602895856        292.43046026127632        292.69844961140234        292.92462642320999        293.10910664467531        293.25347567297081        293.36081648676418        293.43552587563903        293.48292622658664        293.50874103806780        293.51854553418030        293.51730802224421        293.50910115318260        293.49700410889369        293.48316391598638        293.46895519549719        293.45517566841346        293.44223071933521        293.43028202664988        293.41935367309856        293.40940050793398        293.40034817704969     
 SCALARS v double
 LOOKUP_TABLE default