# vtk DataFile Version 2.0
 Flow
 ASCII
 DATASET STRUCTURED_GRID
 FIELD FieldData 1
 TIME 1 1 double
   3.1000000000000000E-004
 DIMENSIONS         668           2           1
 POINTS        1336 double
  0.50024999999999997        0.0000000000000000        0.0000000000000000     
  0.50050000000000006        0.0000000000000000        0.0000000000000000     
  0.50075000000000003        0.0000000000000000        0.0000000000000000     
  0.50100000000000000        0.0000000000000000        0.0000000000000000     
  0.50124999999999997        0.0000000000000000        0.0000000000000000     
  0.50150000000000006        0.0000000000000000        0.0000000000000000     
  0.50175000000000003        0.0000000000000000        0.0000000000000000     
  0.50200000000000000        0.0000000000000000        0.0000000000000000     
  0.50224999999999997        0.0000000000000000        0.0000000000000000     
  0.50250000000000006        0.0000000000000000        0.0000000000000000     
  0.50275000000000003        0.0000000000000000        0.0000000000000000     
  0.50300000000000000        0.0000000000000000        0.0000000000000000     
  0.50324999999999998        0.0000000000000000        0.0000000000000000     
  0.50350000000000006        0.0000000000000000        0.0000000000000000     
  0.50375000000000003        0.0000000000000000        0.0000000000000000     
  0.50400000000000000        0.0000000000000000        0.0000000000000000     
  0.50424999999999998        0.0000000000000000        0.0000000000000000     
  0.50450000000000006        0.0000000000000000        0.0000000000000000     
  0.50475000000000003        0.0000000000000000        0.0000000000000000     
  0.50500000000000000        0.0000000000000000        0.0000000000000000     
  0.50524999999999998        0.0000000000000000        0.0000000000000000     
  0.50550000000000006        0.0000000000000000        0.0000000000000000     
  0.50575000000000003        0.0000000000000000        0.0000000000000000     
  0.50600000000000001        0.0000000000000000        0.0000000000000000     
  0.50624999999999998        0.0000000000000000        0.0000000000000000     
  0.50650000000000006        0.0000000000000000        0.0000000000000000     
  0.50675000000000003        0.0000000000000000        0.0000000000000000     
  0.50700000000000001        0.0000000000000000        0.0000000000000000     
  0.50724999999999998        0.0000000000000000        0.0000000000000000     
  0.50750000000000006        0.0000000000000000        0.0000000000000000     
  0.50775000000000003        0.0000000000000000        0.0000000000000000     
  0.50800000000000001        0.0000000000000000        0.0000000000000000     
  0.50824999999999998        0.0000000000000000        0.0000000000000000     
  0.50850000000000006        0.0000000000000000        0.0000000000000000     
  0.50875000000000004        0.0000000000000000        0.0000000000000000     
  0.50900000000000001        0.0000000000000000        0.0000000000000000     
  0.50924999999999998        0.0000000000000000        0.0000000000000000     
  0.50950000000000006        0.0000000000000000        0.0000000000000000     
  0.50975000000000004        0.0000000000000000        0.0000000000000000     
  0.51000000000000001        0.0000000000000000        0.0000000000000000     
  0.51024999999999998        0.0000000000000000        0.0000000000000000     
  0.51050000000000006        0.0000000000000000        0.0000000000000000     
  0.51075000000000004        0.0000000000000000        0.0000000000000000     
  0.51100000000000001        0.0000000000000000        0.0000000000000000     
  0.51124999999999998        0.0000000000000000        0.0000000000000000     
  0.51150000000000007        0.0000000000000000        0.0000000000000000     
  0.51175000000000004        0.0000000000000000        0.0000000000000000     
  0.51200000000000001        0.0000000000000000        0.0000000000000000     
  0.51224999999999998        0.0000000000000000        0.0000000000000000     
  0.51249999999999996        0.0000000000000000        0.0000000000000000     
  0.51275000000000004        0.0000000000000000        0.0000000000000000     
  0.51300000000000001        0.0000000000000000        0.0000000000000000     
  0.51324999999999998        0.0000000000000000        0.0000000000000000     
  0.51349999999999996        0.0000000000000000        0.0000000000000000     
  0.51375000000000004        0.0000000000000000        0.0000000000000000     
  0.51400000000000001        0.0000000000000000        0.0000000000000000     
  0.51424999999999998        0.0000000000000000        0.0000000000000000     
  0.51449999999999996        0.0000000000000000        0.0000000000000000     
  0.51475000000000004        0.0000000000000000        0.0000000000000000     
  0.51500000000000001        0.0000000000000000        0.0000000000000000     
  0.51524999999999999        0.0000000000000000        0.0000000000000000     
  0.51549999999999996        0.0000000000000000        0.0000000000000000     
  0.51575000000000004        0.0000000000000000        0.0000000000000000     
  0.51600000000000001        0.0000000000000000        0.0000000000000000     
  0.51624999999999999        0.0000000000000000        0.0000000000000000     
  0.51649999999999996        0.0000000000000000        0.0000000000000000     
  0.51675000000000004        0.0000000000000000        0.0000000000000000     
  0.51700000000000002        0.0000000000000000        0.0000000000000000     
  0.51724999999999999        0.0000000000000000        0.0000000000000000     
  0.51749999999999996        0.0000000000000000        0.0000000000000000     
  0.51775000000000004        0.0000000000000000        0.0000000000000000     
  0.51800000000000002        0.0000000000000000        0.0000000000000000     
  0.51824999999999999        0.0000000000000000        0.0000000000000000     
  0.51849999999999996        0.0000000000000000        0.0000000000000000     
  0.51875000000000004        0.0000000000000000        0.0000000000000000     
  0.51900000000000002        0.0000000000000000        0.0000000000000000     
  0.51924999999999999        0.0000000000000000        0.0000000000000000     
  0.51949999999999996        0.0000000000000000        0.0000000000000000     
  0.51975000000000005        0.0000000000000000        0.0000000000000000     
  0.52000000000000002        0.0000000000000000        0.0000000000000000     
  0.52024999999999999        0.0000000000000000        0.0000000000000000     
  0.52049999999999996        0.0000000000000000        0.0000000000000000     
  0.52075000000000005        0.0000000000000000        0.0000000000000000     
  0.52100000000000002        0.0000000000000000        0.0000000000000000     
  0.52124999999999999        0.0000000000000000        0.0000000000000000     
  0.52149999999999996        0.0000000000000000        0.0000000000000000     
  0.52175000000000005        0.0000000000000000        0.0000000000000000     
  0.52200000000000002        0.0000000000000000        0.0000000000000000     
  0.52224999999999999        0.0000000000000000        0.0000000000000000     
  0.52249999999999996        0.0000000000000000        0.0000000000000000     
  0.52275000000000005        0.0000000000000000        0.0000000000000000     
  0.52300000000000002        0.0000000000000000        0.0000000000000000     
  0.52324999999999999        0.0000000000000000        0.0000000000000000     
  0.52349999999999997        0.0000000000000000        0.0000000000000000     
  0.52375000000000005        0.0000000000000000        0.0000000000000000     
  0.52400000000000002        0.0000000000000000        0.0000000000000000     
  0.52424999999999999        0.0000000000000000        0.0000000000000000     
  0.52449999999999997        0.0000000000000000        0.0000000000000000     
  0.52475000000000005        0.0000000000000000        0.0000000000000000     
  0.52500000000000002        0.0000000000000000        0.0000000000000000     
  0.52524999999999999        0.0000000000000000        0.0000000000000000     
  0.52549999999999997        0.0000000000000000        0.0000000000000000     
  0.52575000000000005        0.0000000000000000        0.0000000000000000     
  0.52600000000000002        0.0000000000000000        0.0000000000000000     
  0.52625000000000000        0.0000000000000000        0.0000000000000000     
  0.52649999999999997        0.0000000000000000        0.0000000000000000     
  0.52675000000000005        0.0000000000000000        0.0000000000000000     
  0.52700000000000002        0.0000000000000000        0.0000000000000000     
  0.52725000000000000        0.0000000000000000        0.0000000000000000     
  0.52749999999999997        0.0000000000000000        0.0000000000000000     
  0.52775000000000005        0.0000000000000000        0.0000000000000000     
  0.52800000000000002        0.0000000000000000        0.0000000000000000     
  0.52825000000000000        0.0000000000000000        0.0000000000000000     
  0.52849999999999997        0.0000000000000000        0.0000000000000000     
  0.52875000000000005        0.0000000000000000        0.0000000000000000     
  0.52900000000000003        0.0000000000000000        0.0000000000000000     
  0.52925000000000000        0.0000000000000000        0.0000000000000000     
  0.52949999999999997        0.0000000000000000        0.0000000000000000     
  0.52975000000000005        0.0000000000000000        0.0000000000000000     
  0.53000000000000003        0.0000000000000000        0.0000000000000000     
  0.53025000000000000        0.0000000000000000        0.0000000000000000     
  0.53049999999999997        0.0000000000000000        0.0000000000000000     
  0.53075000000000006        0.0000000000000000        0.0000000000000000     
  0.53100000000000003        0.0000000000000000        0.0000000000000000     
[...]
 CELL_DATA         667
 SCALARS u double
 LOOKUP_TABLE default
   293.39211438840505        293.38461899969076        293.37778807330108        293.37155498861586        293.36586028063266        293.36065101941603        293.35588008700637        293.35150548783110        293.34748973315499        293.34379930364702        293.34040418261202        293.33727745024498        293.33439493000094        293.33173487951848        293.32927771981059        293.32700579746654        293.32490317545154        293.32295544874938        293.32114958164487        293.31947376389405        293.31791728340858        293.31647041340847        293.31512431226497        293.31387093449524        293.31270295157441        293.31161368139067        293.31059702533003        293.30964741208834        293.30875974743032        293.30792936919386        293.30715200694021        293.30642374571175        293.30574099343465        293.30510045156609        293.30449908863346        293.30393411636317        293.30340296813250        293.30290327950678        293.30243287065457        293.30198973044526        293.30157200206298        293.30117796997695        293.30080604812798        293.30045476920969        293.30012277492648        293.29980880713242        293.29951169976221        293.29923037147341        293.29896381893468        293.29871111069326        293.29847138156936        293.29824382752480        293.29802770096416        293.29782230642235        293.29762699661035        293.29744116877697        293.29726426136631        293.29709575094017        293.29693514934269        293.29678200108896        293.29663588095758        293.29649639177001        293.29636316234428        293.29623584560437        293.29611411684067        293.29599767210073        293.29588622670747        293.29577951389052        293.29567728352418        293.29557930096036        293.29548534595347        293.29539521166492        293.29530870374475        293.29522563948149        293.29514584701508        293.29506916461008        293.29499543998173        293.29492452967099        293.29485629846607        293.29479061886661        293.29472737058552        293.29466644008846        293.29460772016432        293.29455110952648        293.29449651244363        293.29444383839501        293.29439300174840        293.29434392146248        293.29429652080768        293.29425072710546        293.29420647148635        293.29416368866310        293.29412231671944        293.29408229691262        293.29404357348795        293.29400609350665        293.29396980668577        293.29393466524419        293.29390062376359        293.29386763905433        293.29383567003168        293.29380467759859        293.29377462453601        293.29374547540107        293.29371719642830        293.29368975544037        293.29366312176177        293.29363726613963        293.29361216066610        293.29358777870999        293.29356409484791        293.29354108480322        293.29351872538564        293.29349699443532        293.29347587077137        293.29345533414136        293.29343536517467        293.29341594533827        293.29339705689506        293.29337868286331        293.29336080698039        293.29334341366717        293.29332648799482        293.29331001565293        293.29329398292015        293.29327837663652        293.29326318417628        293.29324839342263        293.29323399274472        293.29321997097475        293.29320631738545        293.29319302167124        293.29318007392811        293.29316746463559        293.29315518463920        293.29314322513414        293.29313157764915        293.29312023403190        293.29310918643455        293.29309842730004        293.29308794935025        293.29307774557316        293.29306780921235        293.29305813375544        293.29304871292538        293.29303954066881        293.29303061114769        293.29302191872881        293.29301345797575        293.29300522364031        293.29299721065405        293.29298941412173        293.29298182931416        293.29297445166270        293.29296727675325        293.29296030032049        293.29295351824152        293.29294692653099        293.29294052133457        293.29293429892294        293.29292825568655        293.29292238813025        293.29291669286874        293.29291116662239        293.29290580621381        293.29290060856488        293.29289557069427        293.29289068971445        293.29288596282890        293.29288138732892        293.29287696059140        293.29287268007351        293.29286854331036        293.29286454790991        293.29286069155154        293.29285697197969        293.29285338700413        293.29284993449568        293.29284661238404        293.29284341865906        293.29284035136561        293.29283740860564        293.29283458853638        293.29283188936898        293.29282930936887        293.29282684685393        293.29282450019343        293.29282226780919        293.29282014817448        293.29281813981481        293.29281624131033        293.29281445129834        293.29281276847712        293.29281119161243        293.29280971954188        293.29280835118146        293.29280708553046        293.29280592167390        293.29280485877905        293.29280389608948        293.29280303290875        293.29280226857776        293.29280160244429        293.29280103382791        293.29280056198070        293.29280018605249        293.29279990505955        293.29279971786616        293.29279962318236        293.29279961957513        293.29279970549646        293.29279987932705        293.29280013942440        293.29280048417525        293.29280091204464        293.29280142161366        293.29280201160861        293.29280268091304        293.29280342856811        293.29280425376265        293.29280515581445        293.29280613414807        293.29280718827130        293.29280831775327        293.29280952220557        293.29281080126634        293.29281215459031        293.29281358183994        293.29281508268076        293.29281665677928        293.29281830380006        293.29282002340705        293.29282181526372        293.29282367903301        293.29282561437753        293.29282762096216        293.29282969845332        293.29283184652002        293.29283406483529        293.29283635307530        293.29283871092093        293.29284113805795        293.29284363417736        293.29284619897555        293.29284883215519        293.29285153342505        293.29285430250019        293.29285713910173        293.29286004295818        293.29286301380449        293.29286605138213        293.29286915544043        293.29287232573500        293.29287556202854        293.29287886409082        293.29288223169846        293.29288566463504        293.29288916269087        293.29289272566382        293.29289635335778        293.29290004558408        293.29290380215991        293.29290762291032        293.29291150766574        293.29291545626415        293.29291946854903        293.29292354437143        293.29292768358778        293.29293188606124        293.29293615166108        293.29294048026276        293.29294487174769        293.29294932600385        293.29295384292476        293.29295842241009        293.29296306436515        293.29296776870149        293.29297253533582        293.29297736419136        293.29298225519653        293.29298720828552        293.29299222339779        293.29299730047887        293.29300243947949        293.29300764035611        293.29301290306978        293.29301822758759        293.29302361388187        293.29302906193033        293.29303457171522        293.29304014322508        293.29304577645229        293.29305147139536        293.29305722805714        293.29306304644626        293.29306892657559        293.29307486846335        293.29308087213241        293.29308693761072        293.29309306493076        293.29309925413014        293.29310550525088        293.29311181833947        293.29311819344747        293.29312463063059        293.29313112994924        293.29313769146779        293.29314431525506        293.29315100138405        293.29315774993182        293.29316456097854        293.29317143460935        293.29317837091133        293.29318536997579        293.29319243189713        293.29319955677153        293.29320674469858        293.29321399577873        293.29322131011480        293.29322868781099        293.29323612897110        293.29324363369989        293.29325120210092        293.29325883427674        293.29326653032797        293.29327429035209        293.29328211444363        293.29329000269166        293.29329795518021        293.29330597198668        293.29331405318015        293.29332219882207        293.29333040896279        293.29333868364199        293.29334702288759        293.29335542671316        293.29336389511838        293.29337242808708        293.29338102558557        293.29338968756360        293.29339841395142        293.29340720466024        293.29341605958041        293.29342497858306        293.29343396151700        293.29344300821049        293.29345211847078        293.29346129208420        293.29347052881621        293.29347982841301        293.29348919060135        293.29349861509036        293.29350810157251        293.29351764972546        293.29352725921285        293.29353692968681        293.29354666078984        293.29355645215685        293.29356630341709        293.29357621419604        293.29358618411879        293.29359621281105        293.29360629990174        293.29361644502558        293.29362664782434        293.29363690794969        293.29364722506392        293.29365759884263        293.29366802897579        293.29367851516895        293.29368905714489        293.29369965464412        293.29371030742630        293.29372101526997        293.29373177797470        293.29374259535950        293.29375346726471        293.29376439355138        293.29377537410130        293.29378640881765        293.29379749762347        293.29380864046288        293.29381983729991        293.29383108811845        293.29384239292227        293.29385375173376        293.29386516459397        293.29387663156217        293.29388815271545        293.29389972814778        293.29391135796948        293.29392304230709        293.29393478130271        293.29394657511273        293.29395842390801        293.29397032787301        293.29398228720498        293.29399430211384        293.29400637282083        293.29401849955860        293.29403068257056        293.29404292210984        293.29405521843972        293.29406757183148        293.29407998256556        293.29409245093058        293.29410497722228        293.29411756174403        293.29413020480598        293.29414290672440        293.29415566782211        293.29416848842783        293.29418136887580        293.29419430950549        293.29420731066176        293.29422037269455        293.29423349595862        293.29424668081333        293.29425992762293        293.29427323675571        293.29428660858457        293.29430004348700        293.29431354184459        293.29432710404353        293.29434073047344        293.29435442152914        293.29436817760899        293.29438199911579        293.29439588645670        293.29440984004265        293.29442386028910        293.29443794761596        293.29445210244739        293.29446632521143        293.29448061634059        293.29449497627229        293.29450940544780        293.29452390431328        293.29453847331928        293.29455311292082        293.29456782357772        293.29458260575439        293.29459745992023        293.29461238654909        293.29462738611983        293.29464245911612        293.29465760602682        293.29467282734566        293.29468812357146        293.29470349520824        293.29471894276526        293.29473446675672        293.29475006770275        293.29476574612835        293.29478150256409        293.29479733754647        293.29481325161709        293.29482924532323        293.29484531921861        293.29486147386189        293.29487770981785        293.29489402765751        293.29491042795746        293.29492691130116        293.29494347827733        293.29496012948152        293.29497686551531        293.29499368698697        293.29501059451087        293.29502758870842        293.29504467020723        293.29506183964219        293.29507909765437        293.29509644489275        293.29511388201217        293.29513140967532        293.29514902855192        293.29516673931954        293.29518454266207        293.29520243927192        293.29522042984871        293.29523851509958        293.29525669573985        293.29527497249262        293.29529334608912        293.29531181726838        293.29533038677812        293.29534905537406        293.29536782382092        293.29538669289138        293.29540566336726        293.29542473603897        293.29544391170583        293.29546319117622        293.29548257526812        293.29550206480855        293.29552166063388        293.29554136358968        293.29556117453222        293.29558109432651        293.29560112384860        293.29562126398395        293.29564151562829        293.29566187968823        293.29568235708030        293.29570294873287        293.29572365558397        293.29574447858340        293.29576541869193        293.29578647688180        293.29580765413692        293.29582895145256        293.29585036983639        293.29587191030777        293.29589357389835        293.29591536165248        293.29593727462674        293.29595931389076        293.29598148052725        293.29600377563162        293.29602620031335        293.29604875569498        293.29607144291327        293.29609426311839        293.29611721747528        293.29614030716311        293.29616353337553        293.29618689732087        293.29621040022317        293.29623404332165        293.29625782787059        293.29628175514046        293.29630582641846        293.29633004300717        293.29635440622627        293.29637891741260        293.29640357791976        293.29642838911860        293.29645335239843        293.29647846916600        293.29650374084673        293.29652916888466        293.29655475474249        293.29658049990212        293.29660640586542        293.29663247415374        293.29665870630890        293.29668510389342        293.29671166849027        293.29673840170415        293.29676530516048        293.29679238050795        293.29681962941663        293.29684705357982        293.29687465471380        293.29690243455832        293.29693039487699        293.29695853745773        293.29698686411308        293.29701537668097        293.29704407702536        293.29707296703617        293.29710204862999        293.29713132375048        293.29716079436872        293.29719046248420        293.29722033012428        293.29725039934624        293.29728067223681        293.29731115091272        293.29734183752146        293.29737273424183        293.29740384328437        293.29743516689166        293.29746670733965        293.29749846693846        293.29753044803226        293.29756265299977        293.29759508425542        293.29762774424904        293.29766063546697        293.29769376043419        293.29772712171314        293.29776072190697        293.29779456365753        293.29782864964818        293.29786298260240        293.29789756528584        293.29793240050731        293.29796749111938        293.29800284001999        293.29803845015294        293.29807432450815        293.29811046612235        293.29814687808044        293.29818356351575        293.29822052561269        293.29825776760777        293.29829529278953        293.29833310450107        293.29837120613837        293.29840960115217        293.29844829304892        293.29848728539292        293.29852658180812        293.29856618598035        293.29860610165747        293.29864633265049        293.29868688283290        293.29872775614251        293.29876895658316        293.29881048822801        293.29885235522102        293.29889456177966        293.29893711219376        293.29898001082705        293.29902326211743        293.29906687057803        293.29911084080220        293.29915517746576        293.29919988533067        293.29924496924525        293.29929043414421        293.29933628504745        293.29938252706188        293.29942916538585        293.29947620531328        293.29952365223926        293.29957151166207        293.29961978918288        293.29966849050487        293.29971762143276        293.29976718787594        293.29981719585436        293.29986765150608        293.29991856109183        293.29996993099616        293.30002176772575        293.30007407790708        293.30012686828775        293.30018014574250        293.30023391728355        293.30028819006890        293.30034297140685        293.30039826875333        293.30045408970625        293.30051044200098        293.30056733351012        293.30062477224658        293.30068276635888        293.30074132410607        293.30080045378128        293.30086016355176        293.30092046113595        293.30098135316058        293.30104284386198        293.30110493243836        293.30116760763536        293.30123083668923        293.30129454277750        293.30135855908395        293.30142253523678        293.30148574673933        293.30154670677524        293.30160237540207        293.30164654856884        293.30166657635061     
 SCALARS v double
 LOOKUP_TABLE default