# vtk DataFile Version 2.0
 Flow
 ASCII
 DATASET STRUCTURED_GRID
 FIELD FieldData 1
 TIME 1 1 double
   3.1000000000000000E-004
 DIMENSIONS         668           2           1
 POINTS        1336 double
  0.16675000000000001        0.0000000000000000        0.0000000000000000     
  0.16700000000000001        0.0000000000000000        0.0000000000000000     
  0.16725000000000001        0.0000000000000000        0.0000000000000000     
  0.16750000000000001        0.0000000000000000        0.0000000000000000     
  0.16775000000000001        0.0000000000000000        0.0000000000000000     
  0.16800000000000001        0.0000000000000000        0.0000000000000000     
  0.16825000000000001        0.0000000000000000        0.0000000000000000     
  0.16850000000000001        0.0000000000000000        0.0000000000000000     
  0.16875000000000001        0.0000000000000000        0.0000000000000000     
  0.16900000000000001        0.0000000000000000        0.0000000000000000     
  0.16925000000000001        0.0000000000000000        0.0000000000000000     
  0.16950000000000001        0.0000000000000000        0.0000000000000000     
  0.16975000000000001        0.0000000000000000        0.0000000000000000     
  0.17000000000000001        0.0000000000000000        0.0000000000000000     
  0.17025000000000001        0.0000000000000000        0.0000000000000000     
  0.17050000000000001        0.0000000000000000        0.0000000000000000     
  0.17075000000000001        0.0000000000000000        0.0000000000000000     
  0.17100000000000001        0.0000000000000000        0.0000000000000000     
  0.17125000000000001        0.0000000000000000        0.0000000000000000     
  0.17150000000000001        0.0000000000000000        0.0000000000000000     
  0.17175000000000001        0.0000000000000000        0.0000000000000000     
  0.17200000000000001        0.0000000000000000        0.0000000000000000     
  0.17225000000000001        0.0000000000000000        0.0000000000000000     
  0.17250000000000001        0.0000000000000000        0.0000000000000000     
  0.17275000000000001        0.0000000000000000        0.0000000000000000     
  0.17300000000000001        0.0000000000000000        0.0000000000000000     
  0.17325000000000002        0.0000000000000000        0.0000000000000000     
  0.17350000000000002        0.0000000000000000        0.0000000000000000     
  0.17375000000000002        0.0000000000000000        0.0000000000000000     
  0.17400000000000002        0.0000000000000000        0.0000000000000000     
  0.17425000000000002        0.0000000000000000        0.0000000000000000     
  0.17450000000000002        0.0000000000000000        0.0000000000000000     
  0.17475000000000002        0.0000000000000000        0.0000000000000000     
  0.17500000000000002        0.0000000000000000        0.0000000000000000     
  0.17525000000000002        0.0000000000000000        0.0000000000000000     
  0.17550000000000002        0.0000000000000000        0.0000000000000000     
  0.17575000000000002        0.0000000000000000        0.0000000000000000     
  0.17599999999999999        0.0000000000000000        0.0000000000000000     
  0.17624999999999999        0.0000000000000000        0.0000000000000000     
  0.17649999999999999        0.0000000000000000        0.0000000000000000     
  0.17674999999999999        0.0000000000000000        0.0000000000000000     
  0.17699999999999999        0.0000000000000000        0.0000000000000000     
  0.17724999999999999        0.0000000000000000        0.0000000000000000     
  0.17749999999999999        0.0000000000000000        0.0000000000000000     
  0.17774999999999999        0.0000000000000000        0.0000000000000000     
  0.17799999999999999        0.0000000000000000        0.0000000000000000     
  0.17824999999999999        0.0000000000000000        0.0000000000000000     
  0.17849999999999999        0.0000000000000000        0.0000000000000000     
  0.17874999999999999        0.0000000000000000        0.0000000000000000     
  0.17899999999999999        0.0000000000000000        0.0000000000000000     
  0.17924999999999999        0.0000000000000000        0.0000000000000000     
  0.17949999999999999        0.0000000000000000        0.0000000000000000     
  0.17974999999999999        0.0000000000000000        0.0000000000000000     
  0.17999999999999999        0.0000000000000000        0.0000000000000000     
  0.18024999999999999        0.0000000000000000        0.0000000000000000     
  0.18049999999999999        0.0000000000000000        0.0000000000000000     
  0.18074999999999999        0.0000000000000000        0.0000000000000000     
  0.18099999999999999        0.0000000000000000        0.0000000000000000     
  0.18124999999999999        0.0000000000000000        0.0000000000000000     
  0.18149999999999999        0.0000000000000000        0.0000000000000000     
  0.18174999999999999        0.0000000000000000        0.0000000000000000     
  0.18200000000000000        0.0000000000000000        0.0000000000000000     
  0.18225000000000000        0.0000000000000000        0.0000000000000000     
  0.18250000000000000        0.0000000000000000        0.0000000000000000     
  0.18275000000000000        0.0000000000000000        0.0000000000000000     
  0.18300000000000000        0.0000000000000000        0.0000000000000000     
  0.18325000000000000        0.0000000000000000        0.0000000000000000     
  0.18350000000000000        0.0000000000000000        0.0000000000000000     
  0.18375000000000000        0.0000000000000000        0.0000000000000000     
  0.18400000000000000        0.0000000000000000        0.0000000000000000     
  0.18425000000000000        0.0000000000000000        0.0000000000000000     
  0.18450000000000000        0.0000000000000000        0.0000000000000000     
  0.18475000000000000        0.0000000000000000        0.0000000000000000     
  0.18500000000000000        0.0000000000000000        0.0000000000000000     
  0.18525000000000000        0.0000000000000000        0.0000000000000000     
  0.18550000000000000        0.0000000000000000        0.0000000000000000     
  0.18575000000000000        0.0000000000000000        0.0000000000000000     
  0.18600000000000000        0.0000000000000000        0.0000000000000000     
  0.18625000000000000        0.0000000000000000        0.0000000000000000     
  0.18650000000000000        0.0000000000000000        0.0000000000000000     
  0.18675000000000000        0.0000000000000000        0.0000000000000000     
  0.18700000000000000        0.0000000000000000        0.0000000000000000     
  0.18725000000000000        0.0000000000000000        0.0000000000000000     
  0.18750000000000000        0.0000000000000000        0.0000000000000000     
  0.18775000000000000        0.0000000000000000        0.0000000000000000     
  0.18800000000000000        0.0000000000000000        0.0000000000000000     
  0.18825000000000000        0.0000000000000000        0.0000000000000000     
  0.18850000000000000        0.0000000000000000        0.0000000000000000     
  0.18875000000000000        0.0000000000000000        0.0000000000000000     
  0.18900000000000000        0.0000000000000000        0.0000000000000000     
  0.18925000000000000        0.0000000000000000        0.0000000000000000     
  0.18950000000000000        0.0000000000000000        0.0000000000000000     
  0.18975000000000000        0.0000000000000000        0.0000000000000000     
  0.19000000000000000        0.0000000000000000        0.0000000000000000     
  0.19025000000000000        0.0000000000000000        0.0000000000000000     
  0.19050000000000000        0.0000000000000000        0.0000000000000000     
  0.19075000000000000        0.0000000000000000        0.0000000000000000     
  0.19100000000000000        0.0000000000000000        0.0000000000000000     
  0.19125000000000000        0.0000000000000000        0.0000000000000000     
  0.19150000000000000        0.0000000000000000        0.0000000000000000     
  0.19175000000000000        0.0000000000000000        0.0000000000000000     
  0.19200000000000000        0.0000000000000000        0.0000000000000000     
  0.19225000000000000        0.0000000000000000        0.0000000000000000     
  0.19250000000000000        0.0000000000000000        0.0000000000000000     
  0.19275000000000000        0.0000000000000000        0.0000000000000000     
  0.19300000000000000        0.0000000000000000        0.0000000000000000     
  0.19325000000000001        0.0000000000000000        0.0000000000000000     
  0.19350000000000001        0.0000000000000000        0.0000000000000000     
  0.19375000000000001        0.0000000000000000        0.0000000000000000     
  0.19400000000000001        0.0000000000000000        0.0000000000000000     
  0.19425000000000001        0.0000000000000000        0.0000000000000000     
  0.19450000000000001        0.0000000000000000        0.0000000000000000     
  0.19475000000000001        0.0000000000000000        0.0000000000000000     
  0.19500000000000001        0.0000000000000000        0.0000000000000000     
  0.19525000000000001        0.0000000000000000        0.0000000000000000     
  0.19550000000000001        0.0000000000000000        0.0000000000000000     
  0.19575000000000001        0.0000000000000000        0.0000000000000000     
  0.19600000000000001        0.0000000000000000        0.0000000000000000     
  0.19625000000000001        0.0000000000000000        0.0000000000000000     
  0.19650000000000001        0.0000000000000000        0.0000000000000000     
  0.19675000000000001        0.0000000000000000        0.0000000000000000     
  0.19700000000000001        0.0000000000000000        0.0000000000000000     
  0.19725000000000001        0.0000000000000000        0.0000000000000000     
  0.19750000000000001        0.0000000000000000        0.0000000000000000     
[...]
 CELL_DATA         667
 SCALARS u double
 LOOKUP_TABLE default
   0.0000000000000000        0.0000000000000000        0.0000000000000000        0.0000000000000000        0.0000000000000000        0.0000000000000000        0.0000000000000000        0.0000000000000000        0.0000000000000000        0.0000000000000000        0.0000000000000000        0.0000000000000000        0.0000000000000000        0.0000000000000000        0.0000000000000000        0.0000000000000000        0.0000000000000000        0.0000000000000000        0.0000000000000000        0.0000000000000000        0.0000000000000000        0.0000000000000000        0.0000000000000000        0.0000000000000000        0.0000000000000000        0.0000000000000000        0.0000000000000000        0.0000000000000000        0.0000000000000000        0.0000000000000000        0.0000000000000000        0.0000000000000000        0.0000000000000000        0.0000000000000000        0.0000000000000000        0.0000000000000000        0.0000000000000000        0.0000000000000000        0.0000000000000000        0.0000000000000000        0.0000000000000000        0.0000000000000000        0.0000000000000000        0.0000000000000000        0.0000000000000000        0.0000000000000000        0.0000000000000000        0.0000000000000000        0.0000000000000000        0.0000000000000000        0.0000000000000000        0.0000000000000000        0.0000000000000000        0.0000000000000000        0.0000000000000000        0.0000000000000000        0.0000000000000000        0.0000000000000000        0.0000000000000000        0.0000000000000000        0.0000000000000000        0.0000000000000000        0.0000000000000000        0.0000000000000000        0.0000000000000000        0.0000000000000000        0.0000000000000000        0.0000000000000000        0.0000000000000000        0.0000000000000000        0.0000000000000000        0.0000000000000000        0.0000000000000000        0.0000000000000000        0.0000000000000000        0.0000000000000000        0.0000000000000000        0.0000000000000000        0.0000000000000000        0.0000000000000000        0.0000000000000000        0.0000000000000000        0.0000000000000000        0.0000000000000000        0.0000000000000000        0.0000000000000000        0.0000000000000000        0.0000000000000000        0.0000000000000000        0.0000000000000000        0.0000000000000000        0.0000000000000000        0.0000000000000000        0.0000000000000000        0.0000000000000000        0.0000000000000000        0.0000000000000000        0.0000000000000000        0.0000000000000000        0.0000000000000000        0.0000000000000000        0.0000000000000000        0.0000000000000000        0.0000000000000000        0.0000000000000000        0.0000000000000000        0.0000000000000000        0.0000000000000000        0.0000000000000000        0.0000000000000000        0.0000000000000000        0.0000000000000000        0.0000000000000000        0.0000000000000000        0.0000000000000000        0.0000000000000000        0.0000000000000000        0.0000000000000000        0.0000000000000000        0.0000000000000000        0.0000000000000000        0.0000000000000000        0.0000000000000000        0.0000000000000000        0.0000000000000000        0.0000000000000000        0.0000000000000000        0.0000000000000000        0.0000000000000000        0.0000000000000000        0.0000000000000000        0.0000000000000000        0.0000000000000000        0.0000000000000000        0.0000000000000000        0.0000000000000000        0.0000000000000000        0.0000000000000000        0.0000000000000000        0.0000000000000000        0.0000000000000000        0.0000000000000000        0.0000000000000000        0.0000000000000000        0.0000000000000000        0.0000000000000000        0.0000000000000000        0.0000000000000000        0.0000000000000000        0.0000000000000000        0.0000000000000000        0.0000000000000000        0.0000000000000000        0.0000000000000000        0.0000000000000000        0.0000000000000000        0.0000000000000000        0.0000000000000000        0.0000000000000000        0.0000000000000000        0.0000000000000000        0.0000000000000000        0.0000000000000000        0.0000000000000000        0.0000000000000000        0.0000000000000000        0.0000000000000000        0.0000000000000000        0.0000000000000000        0.0000000000000000        0.0000000000000000        0.0000000000000000        0.0000000000000000        0.0000000000000000        0.0000000000000000        0.0000000000000000        0.0000000000000000        0.0000000000000000        0.0000000000000000        0.0000000000000000        0.0000000000000000        0.0000000000000000        0.0000000000000000        0.0000000000000000        0.0000000000000000        0.0000000000000000        0.0000000000000000        0.0000000000000000        0.0000000000000000        0.0000000000000000        0.0000000000000000        0.0000000000000000        0.0000000000000000        0.0000000000000000        0.0000000000000000        0.0000000000000000        0.0000000000000000        0.0000000000000000        0.0000000000000000        0.0000000000000000        0.0000000000000000        0.0000000000000000        0.0000000000000000        0.0000000000000000        0.0000000000000000        0.0000000000000000        0.0000000000000000        0.0000000000000000        0.0000000000000000        0.0000000000000000        0.0000000000000000        0.0000000000000000        0.0000000000000000        0.0000000000000000        0.0000000000000000        0.0000000000000000        0.0000000000000000        0.0000000000000000        0.0000000000000000        0.0000000000000000        0.0000000000000000        0.0000000000000000        0.0000000000000000        0.0000000000000000        0.0000000000000000        0.0000000000000000        0.0000000000000000        0.0000000000000000        0.0000000000000000        0.0000000000000000        0.0000000000000000        0.0000000000000000        0.0000000000000000        0.0000000000000000        0.0000000000000000        0.0000000000000000        0.0000000000000000        0.0000000000000000        0.0000000000000000        0.0000000000000000        0.0000000000000000        0.0000000000000000        0.0000000000000000        0.0000000000000000        0.0000000000000000        0.0000000000000000        0.0000000000000000        0.0000000000000000        0.0000000000000000        0.0000000000000000        0.0000000000000000        0.0000000000000000        0.0000000000000000        0.0000000000000000        0.0000000000000000        0.0000000000000000        0.0000000000000000        0.0000000000000000        0.0000000000000000        0.0000000000000000        0.0000000000000000        0.0000000000000000        0.0000000000000000        0.0000000000000000        0.0000000000000000        0.0000000000000000        0.0000000000000000        0.0000000000000000        0.0000000000000000        0.0000000000000000        0.0000000000000000        0.0000000000000000        0.0000000000000000        0.0000000000000000        0.0000000000000000        0.0000000000000000        0.0000000000000000        0.0000000000000000        0.0000000000000000        0.0000000000000000        0.0000000000000000        0.0000000000000000        0.0000000000000000        0.0000000000000000        0.0000000000000000        0.0000000000000000        0.0000000000000000        0.0000000000000000        0.0000000000000000        0.0000000000000000        0.0000000000000000        0.0000000000000000        0.0000000000000000        0.0000000000000000        0.0000000000000000        0.0000000000000000        0.0000000000000000        0.0000000000000000        0.0000000000000000        0.0000000000000000        0.0000000000000000        0.0000000000000000        0.0000000000000000        0.0000000000000000        0.0000000000000000        0.0000000000000000        0.0000000000000000        0.0000000000000000        0.0000000000000000        0.0000000000000000        0.0000000000000000        0.0000000000000000        0.0000000000000000        0.0000000000000000        0.0000000000000000        0.0000000000000000        0.0000000000000000        0.0000000000000000        0.0000000000000000        0.0000000000000000        0.0000000000000000        0.0000000000000000        0.0000000000000000        0.0000000000000000        0.0000000000000000        0.0000000000000000        0.0000000000000000        0.0000000000000000        0.0000000000000000        0.0000000000000000        0.0000000000000000        0.0000000000000000        0.0000000000000000        0.0000000000000000        0.0000000000000000        0.0000000000000000        0.0000000000000000        0.0000000000000000        0.0000000000000000        0.0000000000000000        0.0000000000000000        0.0000000000000000        0.0000000000000000        0.0000000000000000        0.0000000000000000        0.0000000000000000        0.0000000000000000        0.0000000000000000        0.0000000000000000        0.0000000000000000        0.0000000000000000        0.0000000000000000        0.0000000000000000        0.0000000000000000        0.0000000000000000        0.0000000000000000        0.0000000000000000        0.0000000000000000        0.0000000000000000        0.0000000000000000        0.0000000000000000        0.0000000000000000        0.0000000000000000        0.0000000000000000        0.0000000000000000        0.0000000000000000        0.0000000000000000        0.0000000000000000        0.0000000000000000        0.0000000000000000        0.0000000000000000        0.0000000000000000        0.0000000000000000        0.0000000000000000        0.0000000000000000        0.0000000000000000        0.0000000000000000        0.0000000000000000        0.0000000000000000        0.0000000000000000        0.0000000000000000        0.0000000000000000        0.0000000000000000        0.0000000000000000        0.0000000000000000        2.4308029775389330E-321   2.1057077825753928E-320   1.9880707523005920E-319   1.8427166392940972E-318   1.7077196244213726E-317   1.5810199974114704E-316   1.4623599943356423E-315   1.3513544554502287E-314   1.2476229088546373E-313   1.1508002499327261E-312   1.0605308323202688E-311   9.7646902717254190E-311   8.9827929399259817E-310   8.2563630751326467E-309   7.5822511088253475E-308   6.9574128070730132E-307   6.3789109219851673E-306   5.8439167394471792E-305   5.3497114319802594E-304   4.8936871397949353E-303   4.4733477179709184E-302   4.0863091024253682E-301   3.7302992617831743E-300   3.4031577158511131E-299   3.1028346140609550E-298   2.8273893785659791E-297   2.5749889266804128E-296   2.3439054957800489E-295   2.1325141007488221E-294   1.9392896594311358E-293   1.7628038255132123E-292   1.6017215707805767E-291   1.4547975600038046E-290   1.3208723618303185E-289   1.1988685382421872E-288   1.0877866534543688E-287   9.8670124080294537E-287   8.9475676329518616E-286   8.1116360026632321E-285   7.3519408909059514E-284   6.6617864729471735E-283   6.0350199678032005E-282   5.4659950830684806E-281   4.9495368095396240E-280   4.4809076806270103E-279   4.0557755815995053E-278   3.6701831665713333E-277   3.3205189167365361E-276   3.0034898519719375E-275   2.7160958893379217E-274   2.4556058262942834E-273   2.2195349132994903E-272   2.0056239698336447E-271   1.8118199894249702E-270   1.6362581728556882E-269   1.4772453240278990E-268   1.3332445398496104E-267   1.2028611236420730E-266   1.0848296508456360E-265   9.7800211594976219E-265   8.8133709049115032E-264   7.9388982344460934E-263   7.1480321730152607E-262   6.4329961543447717E-261   5.7867333893839127E-260   5.2028391390566187E-259   4.6754993301074023E-258   4.1994349826852888E-257   3.7698519488030241E-256   3.3823954913308434E-255   3.0331092637067032E-254   2.7183982806373890E-253   2.4349954997263879E-252   2.1799316628577056E-251   1.9505080742911326E-250   1.7442720195105596E-249   1.5589945549106138E-248   1.3926504231874836E-247   1.2433998728182188E-246   1.1095721821003455E-245   9.8965070889541783E-245   8.8225930636213992E-244   7.8614996261592282E-243   7.0019153835356920E-242   6.2335949110182367E-241   5.5472648787950192E-240   4.9345381979957735E-239   4.3878354251519573E-238   3.9003127554712576E-237   3.4657960148514012E-236   3.0787201295760218E-235   2.7340736119428889E-234   2.4273476509229905E-233   2.1544894402006355E-232   1.9118594127556737E-231   1.6961920823237902E-230   1.5045602186046285E-229   1.3343421056617704E-228   1.1831916523736734E-227   1.0490111405783990E-226   9.2992641130856738E-226   8.2426430260862272E-225   7.3053216428430301E-224   6.4739928579009739E-223   5.7368008357942483E-222   5.0831890376676010E-221   4.5037630500798641E-220   3.9901669518929137E-219   3.5349720385618032E-218   3.1315768036547690E-217   2.7741171549315267E-216   2.4573859169924508E-215   2.1767607441215587E-214   1.9281396355244546E-213   1.7078833104400056E-212   1.5127637625879400E-211   1.3399183718986209E-210   1.1868090064914668E-209   1.0511855993123556E-208   9.3105373179659040E-208   8.2464580137278021E-207   7.3039539070568749E-206   6.4691449434930213E-205   5.7297329312596680E-204   5.0748219817379242E-203   4.4947591541580078E-202   3.9809930734219394E-201   3.5259485267046277E-200   3.1229152581139142E-199   2.7659493732361119E-198   2.4497859383869205E-197   2.1697615146790112E-196   1.9217455060389794E-195   1.7020793246981893E-194   1.5075224887225536E-193   1.3352048652483434E-192   1.1825843613587960E-191   1.0474094431590270E-190   9.2768593351490880E-190   8.2164760109859211E-189   7.2773010859847496E-188   6.4454793700657952E-187   5.7087394641836372E-186   5.0562127241591702E-185   4.4782729136065211E-184   3.9663941831375778E-183   3.5130252823598123E-182   3.1114781500469964E-181   2.7558292394706176E-180   2.4408321234959520E-179   2.1618400902152958E-178   1.9147375871897097E-177   1.6958795028088369E-176   1.5020373888879615E-175   1.3303518309855749E-174   1.1782902636427275E-173   1.0436096080631760E-172   9.2432318092832804E-172   8.1867138605266906E-171   7.2509575642174322E-170   6.4221596358529909E-169   5.6880945517875268E-168   5.0379342012080565E-167   4.4620881539290273E-166   3.9520621872138509E-165   3.5003329843360247E-164   3.1002371561694451E-163   2.7458729484966618E-162   2.4320131848641309E-161   2.1540281606358704E-160   1.9078173506910255E-159   1.6897489232835307E-158   1.4966061677292488E-157   1.3255400456170686E-156   1.1740271655641819E-155   1.0398325615713085E-154   9.2097672588597852E-154   8.1570641006422216E-153   7.2246876349983405E-152   6.3988842793886457E-151   5.6674725009484632E-150   5.0196631311241457E-149   4.4459002182654326E-148   3.9377200706892395E-147   3.4876264110030862E-146   3.0889798001943582E-145   2.7358997004357856E-144   2.4231777320341692E-143   2.1462008450319219E-142   1.9008832722522887E-141   1.6836062600774457E-140   1.4911646879977652E-139   1.3207197895538169E-138   1.1697572773060316E-137   1.0360502541532367E-136   9.1762636393293304E-136   8.1273869674838192E-135   7.1984001986245140E-134   6.3755995403993454E-133   5.6468475867812676E-132   5.0013942753841788E-131   4.4297183098267823E-130   3.9233867079706135E-129   3.4749304042647515E-128   3.0777340711504663E-127   2.7259385342426923E-126   2.4143543417169779E-125   2.1383852129131093E-124   1.8939602368893764E-123   1.6774738208033726E-122   1.4857325023235683E-121   1.3159078415714919E-120   1.1654946977457359E-119   1.0322742749946922E-118   9.1428139239125527E-118   8.0977549514117141E-117   7.1721497930478158E-116   6.3523445120764031E-115   5.6262458603403575E-114   4.9831428850688985E-113   4.4135489256675523E-112   3.9090616708298523E-111   3.4622392126166666E-110   3.0664902697393993E-109   2.7159769605371273E-108   2.4055286905800314E-107   2.1305658832881908E-106   1.8870324271955623E-105   1.6713358425556315E-104   1.4802942847485730E-103   1.3110896036918088E-102   1.1612257684129071E-101   1.0284920451292830E-100   9.1093038670807616E-100   8.0680655247472253E-099   7.1458453122158438E-098   6.3290388821388658E-097   5.6055969999644039E-096   4.9648477964954631E-095   4.3973393017229111E-094   3.8946999500052819E-093   3.4495150219729486E-092   3.0552172258642290E-091   2.7059898220946903E-090   2.3966808649421606E-089   2.1227272817972247E-088   1.8800876423334501E-087   1.6651825944882615E-086   1.4748420654966596E-085   1.3062584438876156E-084   1.1569450680543112E-083   1.0246994422638868E-082   9.0757067629148707E-082   8.0383069815820816E-081   7.1194882381214294E-080   6.3056929068076621E-079   5.5849138403325954E-078   4.9465181512722270E-077   4.3810905298773666E-076   3.8802936576088992E-075   3.4367438525816957E-074   3.0439005842044145E-073   2.6959688161445979E-072   2.3878132248374601E-071   2.1148832171411621E-070   1.8731474324242256E-069   1.6590362036745589E-068   1.4693904058318125E-067   1.3014153162964385E-066   1.1526385382388407E-065   1.0208715832126559E-064   9.0417520676472541E-064   8.0082887119476100E-063   7.0930467152463027E-062   6.2824571420768613E-061   5.5644841105390907E-060   4.9284765000368597E-059   4.3650354198497220E-058   3.8658855523865937E-057   3.4237433577067724E-056   3.0321822856098099E-055   2.6855021010701240E-054
 SCALARS v double
 LOOKUP_TABLE default