# vtk DataFile Version 2.0
 Flow
 ASCII
 DATASET STRUCTURED_GRID
 FIELD FieldData 1
 TIME 1 1 double
   3.1000000000000000E-004
 DIMENSIONS         667           2           1
 POINTS        1334 double
  0.83350000000000002        0.0000000000000000        0.0000000000000000     
  0.83374999999999999        0.0000000000000000        0.0000000000000000     
  0.83399999999999996        0.0000000000000000        0.0000000000000000     
  0.83425000000000005        0.0000000000000000        0.0000000000000000     
  0.83450000000000002        0.0000000000000000        0.0000000000000000     
  0.83474999999999999        0.0000000000000000        0.0000000000000000     
  0.83499999999999996        0.0000000000000000        0.0000000000000000     
  0.83525000000000005        0.0000000000000000        0.0000000000000000     
  0.83550000000000002        0.0000000000000000        0.0000000000000000     
  0.83574999999999999        0.0000000000000000        0.0000000000000000     
  0.83599999999999997        0.0000000000000000        0.0000000000000000     
  0.83625000000000005        0.0000000000000000        0.0000000000000000     
  0.83650000000000002        0.0000000000000000        0.0000000000000000     
  0.83674999999999999        0.0000000000000000        0.0000000000000000     
  0.83699999999999997        0.0000000000000000        0.0000000000000000     
  0.83725000000000005        0.0000000000000000        0.0000000000000000     
  0.83750000000000002        0.0000000000000000        0.0000000000000000     
  0.83774999999999999        0.0000000000000000        0.0000000000000000     
  0.83799999999999997        0.0000000000000000        0.0000000000000000     
  0.83825000000000005        0.0000000000000000        0.0000000000000000     
  0.83850000000000002        0.0000000000000000        0.0000000000000000     
  0.83875000000000000        0.0000000000000000        0.0000000000000000     
  0.83899999999999997        0.0000000000000000        0.0000000000000000     
  0.83925000000000005        0.0000000000000000        0.0000000000000000     
  0.83950000000000002        0.0000000000000000        0.0000000000000000     
  0.83975000000000000        0.0000000000000000        0.0000000000000000     
  0.83999999999999997        0.0000000000000000        0.0000000000000000     
  0.84025000000000005        0.0000000000000000        0.0000000000000000     
  0.84050000000000002        0.0000000000000000        0.0000000000000000     
  0.84075000000000000        0.0000000000000000        0.0000000000000000     
  0.84099999999999997        0.0000000000000000        0.0000000000000000     
  0.84125000000000005        0.0000000000000000        0.0000000000000000     
  0.84150000000000003        0.0000000000000000        0.0000000000000000     
  0.84175000000000000        0.0000000000000000        0.0000000000000000     
  0.84199999999999997        0.0000000000000000        0.0000000000000000     
  0.84225000000000005        0.0000000000000000        0.0000000000000000     
  0.84250000000000003        0.0000000000000000        0.0000000000000000     
  0.84275000000000000        0.0000000000000000        0.0000000000000000     
  0.84299999999999997        0.0000000000000000        0.0000000000000000     
  0.84325000000000006        0.0000000000000000        0.0000000000000000     
  0.84350000000000003        0.0000000000000000        0.0000000000000000     
  0.84375000000000000        0.0000000000000000        0.0000000000000000     
  0.84399999999999997        0.0000000000000000        0.0000000000000000     
  0.84425000000000006        0.0000000000000000        0.0000000000000000     
  0.84450000000000003        0.0000000000000000        0.0000000000000000     
  0.84475000000000000        0.0000000000000000        0.0000000000000000     
  0.84499999999999997        0.0000000000000000        0.0000000000000000     
  0.84525000000000006        0.0000000000000000        0.0000000000000000     
  0.84550000000000003        0.0000000000000000        0.0000000000000000     
  0.84575000000000000        0.0000000000000000        0.0000000000000000     
  0.84599999999999997        0.0000000000000000        0.0000000000000000     
  0.84625000000000006        0.0000000000000000        0.0000000000000000     
  0.84650000000000003        0.0000000000000000        0.0000000000000000     
  0.84675000000000000        0.0000000000000000        0.0000000000000000     
  0.84699999999999998        0.0000000000000000        0.0000000000000000     
  0.84725000000000006        0.0000000000000000        0.0000000000000000     
  0.84750000000000003        0.0000000000000000        0.0000000000000000     
  0.84775000000000000        0.0000000000000000        0.0000000000000000     
  0.84799999999999998        0.0000000000000000        0.0000000000000000     
  0.84825000000000006        0.0000000000000000        0.0000000000000000     
  0.84850000000000003        0.0000000000000000        0.0000000000000000     
  0.84875000000000000        0.0000000000000000        0.0000000000000000     
  0.84899999999999998        0.0000000000000000        0.0000000000000000     
  0.84925000000000006        0.0000000000000000        0.0000000000000000     
  0.84950000000000003        0.0000000000000000        0.0000000000000000     
  0.84975000000000001        0.0000000000000000        0.0000000000000000     
  0.84999999999999998        0.0000000000000000        0.0000000000000000     
  0.85025000000000006        0.0000000000000000        0.0000000000000000     
  0.85050000000000003        0.0000000000000000        0.0000000000000000     
  0.85075000000000001        0.0000000000000000        0.0000000000000000     
  0.85099999999999998        0.0000000000000000        0.0000000000000000     
  0.85125000000000006        0.0000000000000000        0.0000000000000000     
  0.85150000000000003        0.0000000000000000        0.0000000000000000     
  0.85175000000000001        0.0000000000000000        0.0000000000000000     
  0.85199999999999998        0.0000000000000000        0.0000000000000000     
  0.85225000000000006        0.0000000000000000        0.0000000000000000     
  0.85250000000000004        0.0000000000000000        0.0000000000000000     
  0.85275000000000001        0.0000000000000000        0.0000000000000000     
  0.85299999999999998        0.0000000000000000        0.0000000000000000     
  0.85325000000000006        0.0000000000000000        0.0000000000000000     
  0.85350000000000004        0.0000000000000000        0.0000000000000000     
  0.85375000000000001        0.0000000000000000        0.0000000000000000     
  0.85399999999999998        0.0000000000000000        0.0000000000000000     
  0.85425000000000006        0.0000000000000000        0.0000000000000000     
  0.85450000000000004        0.0000000000000000        0.0000000000000000     
  0.85475000000000001        0.0000000000000000        0.0000000000000000     
  0.85499999999999998        0.0000000000000000        0.0000000000000000     
  0.85525000000000007        0.0000000000000000        0.0000000000000000     
  0.85550000000000004        0.0000000000000000        0.0000000000000000     
  0.85575000000000001        0.0000000000000000        0.0000000000000000     
  0.85599999999999998        0.0000000000000000        0.0000000000000000     
  0.85625000000000007        0.0000000000000000        0.0000000000000000     
  0.85650000000000004        0.0000000000000000        0.0000000000000000     
  0.85675000000000001        0.0000000000000000        0.0000000000000000     
  0.85699999999999998        0.0000000000000000        0.0000000000000000     
  0.85725000000000007        0.0000000000000000        0.0000000000000000     
  0.85750000000000004        0.0000000000000000        0.0000000000000000     
  0.85775000000000001        0.0000000000000000        0.0000000000000000     
  0.85799999999999998        0.0000000000000000        0.0000000000000000     
  0.85825000000000007        0.0000000000000000        0.0000000000000000     
  0.85850000000000004        0.0000000000000000        0.0000000000000000     
  0.85875000000000001        0.0000000000000000        0.0000000000000000     
  0.85899999999999999        0.0000000000000000        0.0000000000000000     
  0.85925000000000007        0.0000000000000000        0.0000000000000000     
  0.85950000000000004        0.0000000000000000        0.0000000000000000     
  0.85975000000000001        0.0000000000000000        0.0000000000000000     
  0.85999999999999999        0.0000000000000000        0.0000000000000000     
  0.86025000000000007        0.0000000000000000        0.0000000000000000     
  0.86050000000000004        0.0000000000000000        0.0000000000000000     
  0.86075000000000002        0.0000000000000000        0.0000000000000000     
  0.86099999999999999        0.0000000000000000        0.0000000000000000     
  0.86125000000000007        0.0000000000000000        0.0000000000000000     
  0.86150000000000004        0.0000000000000000        0.0000000000000000     
  0.86175000000000002        0.0000000000000000        0.0000000000000000     
  0.86199999999999999        0.0000000000000000        0.0000000000000000     
  0.86225000000000007        0.0000000000000000        0.0000000000000000     
  0.86250000000000004        0.0000000000000000        0.0000000000000000     
  0.86275000000000002        0.0000000000000000        0.0000000000000000     
  0.86299999999999999        0.0000000000000000        0.0000000000000000     
  0.86325000000000007        0.0000000000000000        0.0000000000000000     
  0.86350000000000005        0.0000000000000000        0.0000000000000000     
  0.86375000000000002        0.0000000000000000        0.0000000000000000     
  0.86399999999999999        0.0000000000000000        0.0000000000000000     
  0.86424999999999996        0.0000000000000000        0.0000000000000000     
[...]
 CELL_DATA         666
 SCALARS u double
 LOOKUP_TABLE default
   0.0000000000000000        0.0000000000000000        0.0000000000000000        0.0000000000000000        0.0000000000000000        0.0000000000000000        0.0000000000000000        0.0000000000000000        0.0000000000000000        0.0000000000000000        0.0000000000000000        0.0000000000000000        0.0000000000000000        0.0000000000000000        0.0000000000000000        0.0000000000000000        0.0000000000000000        0.0000000000000000        0.0000000000000000        0.0000000000000000        0.0000000000000000        0.0000000000000000        0.0000000000000000        0.0000000000000000        0.0000000000000000        0.0000000000000000        0.0000000000000000        0.0000000000000000        0.0000000000000000        0.0000000000000000        0.0000000000000000        0.0000000000000000        0.0000000000000000        0.0000000000000000        0.0000000000000000        0.0000000000000000        0.0000000000000000        0.0000000000000000        0.0000000000000000        0.0000000000000000        0.0000000000000000        0.0000000000000000        0.0000000000000000        0.0000000000000000        0.0000000000000000        0.0000000000000000        0.0000000000000000        0.0000000000000000        0.0000000000000000        0.0000000000000000        0.0000000000000000        0.0000000000000000        0.0000000000000000        0.0000000000000000        0.0000000000000000        0.0000000000000000        0.0000000000000000        0.0000000000000000        0.0000000000000000        0.0000000000000000        0.0000000000000000        0.0000000000000000        0.0000000000000000        0.0000000000000000        0.0000000000000000        0.0000000000000000        0.0000000000000000        0.0000000000000000        0.0000000000000000        0.0000000000000000        0.0000000000000000        0.0000000000000000        0.0000000000000000        0.0000000000000000        0.0000000000000000        0.0000000000000000        0.0000000000000000        0.0000000000000000        0.0000000000000000        0.0000000000000000        0.0000000000000000        0.0000000000000000        0.0000000000000000        0.0000000000000000        0.0000000000000000        0.0000000000000000        0.0000000000000000        0.0000000000000000        0.0000000000000000        0.0000000000000000        0.0000000000000000        0.0000000000000000        0.0000000000000000        0.0000000000000000        0.0000000000000000        0.0000000000000000        0.0000000000000000        0.0000000000000000        0.0000000000000000        0.0000000000000000        0.0000000000000000        0.0000000000000000        0.0000000000000000        0.0000000000000000        0.0000000000000000        0.0000000000000000        0.0000000000000000        0.0000000000000000        0.0000000000000000        0.0000000000000000        0.0000000000000000        0.0000000000000000        0.0000000000000000        0.0000000000000000        0.0000000000000000        0.0000000000000000        0.0000000000000000        0.0000000000000000        0.0000000000000000        0.0000000000000000        0.0000000000000000        0.0000000000000000        0.0000000000000000        0.0000000000000000        0.0000000000000000        0.0000000000000000        0.0000000000000000        0.0000000000000000        0.0000000000000000        0.0000000000000000        0.0000000000000000        0.0000000000000000        0.0000000000000000        0.0000000000000000        0.0000000000000000        0.0000000000000000        0.0000000000000000        0.0000000000000000        0.0000000000000000        0.0000000000000000        0.0000000000000000        0.0000000000000000        0.0000000000000000        0.0000000000000000        0.0000000000000000        0.0000000000000000        0.0000000000000000        0.0000000000000000        0.0000000000000000        0.0000000000000000        0.0000000000000000        0.0000000000000000        0.0000000000000000        0.0000000000000000        0.0000000000000000        0.0000000000000000        0.0000000000000000        0.0000000000000000        0.0000000000000000        0.0000000000000000        0.0000000000000000        0.0000000000000000        0.0000000000000000        0.0000000000000000        0.0000000000000000        0.0000000000000000        0.0000000000000000        0.0000000000000000        0.0000000000000000        0.0000000000000000        0.0000000000000000        0.0000000000000000        0.0000000000000000        0.0000000000000000        0.0000000000000000        0.0000000000000000        0.0000000000000000        0.0000000000000000        0.0000000000000000        0.0000000000000000        0.0000000000000000        0.0000000000000000        0.0000000000000000        0.0000000000000000        0.0000000000000000        0.0000000000000000        0.0000000000000000        0.0000000000000000        0.0000000000000000        0.0000000000000000        0.0000000000000000        0.0000000000000000        0.0000000000000000        0.0000000000000000        0.0000000000000000        0.0000000000000000        0.0000000000000000        0.0000000000000000        0.0000000000000000        0.0000000000000000        0.0000000000000000        0.0000000000000000        0.0000000000000000        0.0000000000000000        0.0000000000000000        0.0000000000000000        0.0000000000000000        0.0000000000000000        0.0000000000000000        0.0000000000000000        0.0000000000000000        0.0000000000000000        0.0000000000000000        0.0000000000000000        0.0000000000000000        0.0000000000000000        0.0000000000000000        0.0000000000000000        0.0000000000000000        0.0000000000000000        0.0000000000000000        0.0000000000000000        0.0000000000000000        0.0000000000000000        0.0000000000000000        0.0000000000000000        0.0000000000000000        0.0000000000000000        0.0000000000000000        0.0000000000000000        0.0000000000000000        0.0000000000000000        0.0000000000000000        0.0000000000000000        0.0000000000000000        0.0000000000000000        0.0000000000000000        0.0000000000000000        0.0000000000000000        0.0000000000000000        0.0000000000000000        0.0000000000000000        0.0000000000000000        0.0000000000000000        0.0000000000000000        0.0000000000000000        0.0000000000000000        0.0000000000000000        0.0000000000000000        0.0000000000000000        0.0000000000000000        0.0000000000000000        0.0000000000000000        0.0000000000000000        0.0000000000000000        0.0000000000000000        0.0000000000000000        0.0000000000000000        0.0000000000000000        0.0000000000000000        0.0000000000000000        0.0000000000000000        0.0000000000000000        0.0000000000000000        0.0000000000000000        0.0000000000000000        0.0000000000000000        0.0000000000000000        0.0000000000000000        0.0000000000000000        0.0000000000000000        0.0000000000000000        0.0000000000000000        0.0000000000000000        0.0000000000000000        0.0000000000000000        0.0000000000000000        0.0000000000000000        0.0000000000000000        0.0000000000000000        0.0000000000000000        0.0000000000000000        0.0000000000000000        0.0000000000000000        0.0000000000000000        0.0000000000000000        0.0000000000000000        0.0000000000000000        0.0000000000000000        0.0000000000000000        0.0000000000000000        0.0000000000000000        0.0000000000000000        0.0000000000000000        0.0000000000000000        0.0000000000000000        0.0000000000000000        0.0000000000000000        0.0000000000000000        0.0000000000000000        0.0000000000000000        0.0000000000000000        0.0000000000000000        0.0000000000000000        0.0000000000000000        0.0000000000000000        0.0000000000000000        0.0000000000000000        0.0000000000000000        0.0000000000000000        0.0000000000000000        0.0000000000000000        0.0000000000000000        0.0000000000000000        0.0000000000000000        0.0000000000000000        0.0000000000000000        0.0000000000000000        0.0000000000000000        0.0000000000000000        0.0000000000000000        0.0000000000000000        0.0000000000000000        0.0000000000000000        0.0000000000000000        0.0000000000000000        0.0000000000000000        0.0000000000000000        0.0000000000000000        0.0000000000000000        0.0000000000000000        0.0000000000000000        0.0000000000000000        0.0000000000000000        0.0000000000000000        0.0000000000000000        0.0000000000000000        0.0000000000000000        0.0000000000000000        0.0000000000000000        0.0000000000000000        0.0000000000000000        0.0000000000000000        0.0000000000000000        0.0000000000000000        0.0000000000000000        0.0000000000000000        0.0000000000000000        0.0000000000000000        0.0000000000000000        0.0000000000000000        0.0000000000000000        0.0000000000000000        0.0000000000000000        0.0000000000000000        0.0000000000000000        0.0000000000000000        0.0000000000000000        0.0000000000000000        0.0000000000000000        0.0000000000000000        0.0000000000000000        0.0000000000000000        0.0000000000000000        0.0000000000000000        0.0000000000000000        0.0000000000000000        0.0000000000000000        0.0000000000000000        0.0000000000000000        0.0000000000000000        0.0000000000000000        0.0000000000000000        0.0000000000000000        0.0000000000000000        0.0000000000000000        0.0000000000000000        0.0000000000000000        0.0000000000000000        0.0000000000000000        0.0000000000000000        0.0000000000000000        0.0000000000000000        0.0000000000000000        0.0000000000000000        0.0000000000000000        0.0000000000000000        0.0000000000000000        0.0000000000000000        0.0000000000000000        0.0000000000000000        0.0000000000000000        0.0000000000000000        0.0000000000000000        0.0000000000000000        0.0000000000000000        0.0000000000000000        0.0000000000000000        0.0000000000000000        0.0000000000000000        0.0000000000000000        0.0000000000000000        0.0000000000000000        0.0000000000000000        0.0000000000000000        0.0000000000000000        0.0000000000000000        0.0000000000000000        0.0000000000000000        0.0000000000000000        0.0000000000000000        0.0000000000000000        0.0000000000000000        0.0000000000000000        0.0000000000000000        0.0000000000000000        0.0000000000000000        0.0000000000000000        0.0000000000000000        0.0000000000000000        0.0000000000000000        0.0000000000000000        0.0000000000000000        0.0000000000000000        0.0000000000000000        0.0000000000000000        0.0000000000000000        0.0000000000000000        0.0000000000000000        0.0000000000000000        0.0000000000000000        0.0000000000000000        0.0000000000000000        0.0000000000000000        0.0000000000000000        0.0000000000000000        0.0000000000000000        0.0000000000000000        0.0000000000000000        0.0000000000000000        0.0000000000000000        0.0000000000000000        0.0000000000000000        0.0000000000000000        0.0000000000000000        0.0000000000000000        0.0000000000000000        0.0000000000000000        0.0000000000000000        0.0000000000000000        0.0000000000000000        0.0000000000000000        0.0000000000000000        0.0000000000000000        0.0000000000000000        0.0000000000000000        0.0000000000000000        0.0000000000000000        0.0000000000000000        0.0000000000000000        0.0000000000000000        0.0000000000000000        0.0000000000000000        0.0000000000000000        0.0000000000000000        0.0000000000000000        0.0000000000000000        0.0000000000000000        0.0000000000000000        0.0000000000000000        0.0000000000000000        0.0000000000000000        0.0000000000000000        0.0000000000000000        0.0000000000000000        0.0000000000000000        0.0000000000000000        0.0000000000000000        0.0000000000000000        0.0000000000000000        0.0000000000000000        0.0000000000000000        0.0000000000000000        0.0000000000000000        0.0000000000000000        0.0000000000000000        0.0000000000000000        0.0000000000000000        0.0000000000000000        0.0000000000000000        0.0000000000000000        0.0000000000000000        0.0000000000000000        0.0000000000000000        0.0000000000000000        0.0000000000000000        0.0000000000000000        0.0000000000000000        0.0000000000000000        0.0000000000000000        0.0000000000000000        0.0000000000000000        0.0000000000000000        0.0000000000000000        0.0000000000000000        0.0000000000000000        0.0000000000000000        0.0000000000000000        0.0000000000000000        0.0000000000000000        0.0000000000000000        0.0000000000000000        0.0000000000000000        0.0000000000000000        0.0000000000000000        0.0000000000000000        0.0000000000000000        0.0000000000000000        0.0000000000000000        0.0000000000000000        0.0000000000000000        0.0000000000000000        0.0000000000000000        0.0000000000000000        0.0000000000000000        0.0000000000000000        0.0000000000000000        0.0000000000000000        0.0000000000000000        0.0000000000000000        0.0000000000000000        0.0000000000000000        0.0000000000000000        0.0000000000000000        0.0000000000000000        0.0000000000000000        0.0000000000000000        0.0000000000000000        0.0000000000000000        0.0000000000000000        0.0000000000000000        0.0000000000000000        0.0000000000000000        0.0000000000000000        0.0000000000000000        0.0000000000000000        0.0000000000000000        0.0000000000000000        0.0000000000000000        0.0000000000000000        0.0000000000000000        0.0000000000000000        0.0000000000000000        0.0000000000000000        0.0000000000000000        0.0000000000000000        0.0000000000000000        0.0000000000000000        0.0000000000000000        0.0000000000000000        0.0000000000000000        0.0000000000000000        0.0000000000000000        0.0000000000000000        0.0000000000000000        0.0000000000000000        0.0000000000000000        0.0000000000000000        0.0000000000000000        0.0000000000000000        0.0000000000000000        0.0000000000000000        0.0000000000000000        0.0000000000000000        0.0000000000000000        0.0000000000000000        0.0000000000000000        0.0000000000000000        0.0000000000000000        0.0000000000000000        0.0000000000000000        0.0000000000000000        0.0000000000000000        0.0000000000000000        0.0000000000000000        0.0000000000000000        0.0000000000000000        0.0000000000000000        0.0000000000000000        0.0000000000000000        0.0000000000000000        0.0000000000000000        0.0000000000000000        0.0000000000000000        0.0000000000000000        0.0000000000000000        0.0000000000000000        0.0000000000000000        0.0000000000000000        0.0000000000000000        0.0000000000000000        0.0000000000000000        0.0000000000000000        0.0000000000000000        0.0000000000000000        0.0000000000000000        0.0000000000000000        0.0000000000000000        0.0000000000000000        0.0000000000000000        0.0000000000000000        0.0000000000000000        0.0000000000000000        0.0000000000000000        0.0000000000000000        0.0000000000000000        0.0000000000000000        0.0000000000000000        0.0000000000000000        0.0000000000000000        0.0000000000000000        0.0000000000000000        0.0000000000000000        0.0000000000000000        0.0000000000000000        0.0000000000000000        0.0000000000000000        0.0000000000000000        0.0000000000000000        0.0000000000000000        0.0000000000000000        0.0000000000000000        0.0000000000000000        0.0000000000000000        0.0000000000000000        0.0000000000000000        0.0000000000000000        0.0000000000000000        0.0000000000000000        0.0000000000000000        0.0000000000000000        0.0000000000000000        0.0000000000000000        0.0000000000000000        0.0000000000000000        0.0000000000000000        0.0000000000000000        0.0000000000000000        0.0000000000000000        0.0000000000000000        0.0000000000000000        0.0000000000000000        0.0000000000000000        0.0000000000000000        0.0000000000000000        0.0000000000000000        0.0000000000000000        0.0000000000000000        0.0000000000000000        0.0000000000000000        0.0000000000000000        0.0000000000000000        0.0000000000000000        0.0000000000000000        0.0000000000000000        0.0000000000000000     
 SCALARS v double
 LOOKUP_TABLE default