# vtk DataFile Version 2.0
 Flow
 ASCII
 DATASET STRUCTURED_GRID
 FIELD FieldData 1
 TIME 1 1 double
   3.1000000000000000E-004
 DIMENSIONS         668           2           1
 POINTS        1336 double
   0.0000000000000000        0.0000000000000000        0.0000000000000000     
   2.5000000000000001E-004   0.0000000000000000        0.0000000000000000     
   5.0000000000000001E-004   0.0000000000000000        0.0000000000000000     
   7.5000000000000002E-004   0.0000000000000000        0.0000000000000000     
   1.0000000000000000E-003   0.0000000000000000        0.0000000000000000     
   1.2500000000000000E-003   0.0000000000000000        0.0000000000000000     
   1.5000000000000000E-003   0.0000000000000000        0.0000000000000000     
   1.7500000000000000E-003   0.0000000000000000        0.0000000000000000     
   2.0000000000000000E-003   0.0000000000000000        0.0000000000000000     
   2.2500000000000003E-003   0.0000000000000000        0.0000000000000000     
   2.5000000000000001E-003   0.0000000000000000        0.0000000000000000     
   2.7499999999999998E-003   0.0000000000000000        0.0000000000000000     
   3.0000000000000001E-003   0.0000000000000000        0.0000000000000000     
   3.2500000000000003E-003   0.0000000000000000        0.0000000000000000     
   3.5000000000000001E-003   0.0000000000000000        0.0000000000000000     
   3.7499999999999999E-003   0.0000000000000000        0.0000000000000000     
   4.0000000000000001E-003   0.0000000000000000        0.0000000000000000     
   4.2500000000000003E-003   0.0000000000000000        0.0000000000000000     
   4.5000000000000005E-003   0.0000000000000000        0.0000000000000000     
   4.7499999999999999E-003   0.0000000000000000        0.0000000000000000     
   5.0000000000000001E-003   0.0000000000000000        0.0000000000000000     
   5.2500000000000003E-003   0.0000000000000000        0.0000000000000000     
   5.4999999999999997E-003   0.0000000000000000        0.0000000000000000     
   5.7499999999999999E-003   0.0000000000000000        0.0000000000000000     
   6.0000000000000001E-003   0.0000000000000000        0.0000000000000000     
   6.2500000000000003E-003   0.0000000000000000        0.0000000000000000     
   6.5000000000000006E-003   0.0000000000000000        0.0000000000000000     
   6.7499999999999999E-003   0.0000000000000000        0.0000000000000000     
   7.0000000000000001E-003   0.0000000000000000        0.0000000000000000     
   7.2500000000000004E-003   0.0000000000000000        0.0000000000000000     
   7.4999999999999997E-003   0.0000000000000000        0.0000000000000000     
   7.7499999999999999E-003   0.0000000000000000        0.0000000000000000     
   8.0000000000000002E-003   0.0000000000000000        0.0000000000000000     
   8.2500000000000004E-003   0.0000000000000000        0.0000000000000000     
   8.5000000000000006E-003   0.0000000000000000        0.0000000000000000     
   8.7500000000000008E-003   0.0000000000000000        0.0000000000000000     
   9.0000000000000011E-003   0.0000000000000000        0.0000000000000000     
   9.2499999999999995E-003   0.0000000000000000        0.0000000000000000     
   9.4999999999999998E-003   0.0000000000000000        0.0000000000000000     
   9.7500000000000000E-003   0.0000000000000000        0.0000000000000000     
   1.0000000000000000E-002   0.0000000000000000        0.0000000000000000     
   1.0250000000000000E-002   0.0000000000000000        0.0000000000000000     
   1.0500000000000001E-002   0.0000000000000000        0.0000000000000000     
   1.0750000000000001E-002   0.0000000000000000        0.0000000000000000     
   1.0999999999999999E-002   0.0000000000000000        0.0000000000000000     
   1.1250000000000000E-002   0.0000000000000000        0.0000000000000000     
   1.1500000000000000E-002   0.0000000000000000        0.0000000000000000     
   1.1750000000000000E-002   0.0000000000000000        0.0000000000000000     
   1.2000000000000000E-002   0.0000000000000000        0.0000000000000000     
   1.2250000000000000E-002   0.0000000000000000        0.0000000000000000     
   1.2500000000000001E-002   0.0000000000000000        0.0000000000000000     
   1.2750000000000001E-002   0.0000000000000000        0.0000000000000000     
   1.3000000000000001E-002   0.0000000000000000        0.0000000000000000     
   1.3250000000000000E-002   0.0000000000000000        0.0000000000000000     
   1.3500000000000000E-002   0.0000000000000000        0.0000000000000000     
   1.3750000000000000E-002   0.0000000000000000        0.0000000000000000     
   1.4000000000000000E-002   0.0000000000000000        0.0000000000000000     
   1.4250000000000001E-002   0.0000000000000000        0.0000000000000000     
   1.4500000000000001E-002   0.0000000000000000        0.0000000000000000     
   1.4750000000000001E-002   0.0000000000000000        0.0000000000000000     
   1.4999999999999999E-002   0.0000000000000000        0.0000000000000000     
   1.5250000000000000E-002   0.0000000000000000        0.0000000000000000     
   1.5500000000000000E-002   0.0000000000000000        0.0000000000000000     
   1.5750000000000000E-002   0.0000000000000000        0.0000000000000000     
   1.6000000000000000E-002   0.0000000000000000        0.0000000000000000     
   1.6250000000000001E-002   0.0000000000000000        0.0000000000000000     
   1.6500000000000001E-002   0.0000000000000000        0.0000000000000000     
   1.6750000000000001E-002   0.0000000000000000        0.0000000000000000     
   1.7000000000000001E-002   0.0000000000000000        0.0000000000000000     
   1.7250000000000001E-002   0.0000000000000000        0.0000000000000000     
   1.7500000000000002E-002   0.0000000000000000        0.0000000000000000     
   1.7750000000000002E-002   0.0000000000000000        0.0000000000000000     
   1.8000000000000002E-002   0.0000000000000000        0.0000000000000000     
   1.8249999999999999E-002   0.0000000000000000        0.0000000000000000     
   1.8499999999999999E-002   0.0000000000000000        0.0000000000000000     
   1.8749999999999999E-002   0.0000000000000000        0.0000000000000000     
   1.9000000000000000E-002   0.0000000000000000        0.0000000000000000     
   1.9250000000000000E-002   0.0000000000000000        0.0000000000000000     
   1.9500000000000000E-002   0.0000000000000000        0.0000000000000000     
   1.9750000000000000E-002   0.0000000000000000        0.0000000000000000     
   2.0000000000000000E-002   0.0000000000000000        0.0000000000000000     
   2.0250000000000001E-002   0.0000000000000000        0.0000000000000000     
   2.0500000000000001E-002   0.0000000000000000        0.0000000000000000     
   2.0750000000000001E-002   0.0000000000000000        0.0000000000000000     
   2.1000000000000001E-002   0.0000000000000000        0.0000000000000000     
   2.1250000000000002E-002   0.0000000000000000        0.0000000000000000     
   2.1500000000000002E-002   0.0000000000000000        0.0000000000000000     
   2.1750000000000002E-002   0.0000000000000000        0.0000000000000000     
   2.1999999999999999E-002   0.0000000000000000        0.0000000000000000     
   2.2249999999999999E-002   0.0000000000000000        0.0000000000000000     
   2.2499999999999999E-002   0.0000000000000000        0.0000000000000000     
   2.2749999999999999E-002   0.0000000000000000        0.0000000000000000     
   2.3000000000000000E-002   0.0000000000000000        0.0000000000000000     
   2.3250000000000000E-002   0.0000000000000000        0.0000000000000000     
   2.3500000000000000E-002   0.0000000000000000        0.0000000000000000     
   2.3750000000000000E-002   0.0000000000000000        0.0000000000000000     
   2.4000000000000000E-002   0.0000000000000000        0.0000000000000000     
   2.4250000000000001E-002   0.0000000000000000        0.0000000000000000     
   2.4500000000000001E-002   0.0000000000000000        0.0000000000000000     
   2.4750000000000001E-002   0.0000000000000000        0.0000000000000000     
   2.5000000000000001E-002   0.0000000000000000        0.0000000000000000     
   2.5250000000000002E-002   0.0000000000000000        0.0000000000000000     
   2.5500000000000002E-002   0.0000000000000000        0.0000000000000000     
   2.5750000000000002E-002   0.0000000000000000        0.0000000000000000     
   2.6000000000000002E-002   0.0000000000000000        0.0000000000000000     
   2.6249999999999999E-002   0.0000000000000000        0.0000000000000000     
   2.6499999999999999E-002   0.0000000000000000        0.0000000000000000     
   2.6749999999999999E-002   0.0000000000000000        0.0000000000000000     
   2.7000000000000000E-002   0.0000000000000000        0.0000000000000000     
   2.7250000000000000E-002   0.0000000000000000        0.0000000000000000     
   2.7500000000000000E-002   0.0000000000000000        0.0000000000000000     
   2.7750000000000000E-002   0.0000000000000000        0.0000000000000000     
   2.8000000000000001E-002   0.0000000000000000        0.0000000000000000     
   2.8250000000000001E-002   0.0000000000000000        0.0000000000000000     
   2.8500000000000001E-002   0.0000000000000000        0.0000000000000000     
   2.8750000000000001E-002   0.0000000000000000        0.0000000000000000     
   2.9000000000000001E-002   0.0000000000000000        0.0000000000000000     
   2.9250000000000002E-002   0.0000000000000000        0.0000000000000000     
   2.9500000000000002E-002   0.0000000000000000        0.0000000000000000     
   2.9750000000000002E-002   0.0000000000000000        0.0000000000000000     
   2.9999999999999999E-002   0.0000000000000000        0.0000000000000000     
   3.0249999999999999E-002   0.0000000000000000        0.0000000000000000     
   3.0499999999999999E-002   0.0000000000000000        0.0000000000000000     
   3.0750000000000000E-002   0.0000000000000000        0.0000000000000000     
[...]
 CELL_DATA         667
 SCALARS u double
 LOOKUP_TABLE default
   0.0000000000000000        0.0000000000000000        0.0000000000000000        0.0000000000000000        0.0000000000000000        0.0000000000000000        0.0000000000000000        0.0000000000000000        0.0000000000000000        0.0000000000000000        0.0000000000000000        0.0000000000000000        0.0000000000000000        0.0000000000000000        0.0000000000000000        0.0000000000000000        0.0000000000000000        0.0000000000000000        0.0000000000000000        0.0000000000000000        0.0000000000000000        0.0000000000000000        0.0000000000000000        0.0000000000000000        0.0000000000000000        0.0000000000000000        0.0000000000000000        0.0000000000000000        0.0000000000000000        0.0000000000000000        0.0000000000000000        0.0000000000000000        0.0000000000000000        0.0000000000000000        0.0000000000000000        0.0000000000000000        0.0000000000000000        0.0000000000000000        0.0000000000000000        0.0000000000000000        0.0000000000000000        0.0000000000000000        0.0000000000000000        0.0000000000000000        0.0000000000000000        0.0000000000000000        0.0000000000000000        0.0000000000000000        0.0000000000000000        0.0000000000000000        0.0000000000000000        0.0000000000000000        0.0000000000000000        0.0000000000000000        0.0000000000000000        0.0000000000000000        0.0000000000000000        0.0000000000000000        0.0000000000000000        0.0000000000000000        0.0000000000000000        0.0000000000000000        0.0000000000000000        0.0000000000000000        0.0000000000000000        0.0000000000000000        0.0000000000000000        0.0000000000000000        0.0000000000000000        0.0000000000000000        0.0000000000000000        0.0000000000000000        0.0000000000000000        0.0000000000000000        0.0000000000000000        0.0000000000000000        0.0000000000000000        0.0000000000000000        0.0000000000000000        0.0000000000000000        0.0000000000000000        0.0000000000000000        0.0000000000000000        0.0000000000000000        0.0000000000000000        0.0000000000000000        0.0000000000000000        0.0000000000000000        0.0000000000000000        0.0000000000000000        0.0000000000000000        0.0000000000000000        0.0000000000000000        0.0000000000000000        0.0000000000000000        0.0000000000000000        0.0000000000000000        0.0000000000000000        0.0000000000000000        0.0000000000000000        0.0000000000000000        0.0000000000000000        0.0000000000000000        0.0000000000000000        0.0000000000000000        0.0000000000000000        0.0000000000000000        0.0000000000000000        0.0000000000000000        0.0000000000000000        0.0000000000000000        0.0000000000000000        0.0000000000000000        0.0000000000000000        0.0000000000000000        0.0000000000000000        0.0000000000000000        0.0000000000000000        0.0000000000000000        0.0000000000000000        0.0000000000000000        0.0000000000000000        0.0000000000000000        0.0000000000000000        0.0000000000000000        0.0000000000000000        0.0000000000000000        0.0000000000000000        0.0000000000000000        0.0000000000000000        0.0000000000000000        0.0000000000000000        0.0000000000000000        0.0000000000000000        0.0000000000000000        0.0000000000000000        0.0000000000000000        0.0000000000000000        0.0000000000000000        0.0000000000000000        0.0000000000000000        0.0000000000000000        0.0000000000000000        0.0000000000000000        0.0000000000000000        0.0000000000000000        0.0000000000000000        0.0000000000000000        0.0000000000000000        0.0000000000000000        0.0000000000000000        0.0000000000000000        0.0000000000000000        0.0000000000000000        0.0000000000000000        0.0000000000000000        0.0000000000000000        0.0000000000000000        0.0000000000000000        0.0000000000000000        0.0000000000000000        0.0000000000000000        0.0000000000000000        0.0000000000000000        0.0000000000000000        0.0000000000000000        0.0000000000000000        0.0000000000000000        0.0000000000000000        0.0000000000000000        0.0000000000000000        0.0000000000000000        0.0000000000000000        0.0000000000000000        0.0000000000000000        0.0000000000000000        0.0000000000000000        0.0000000000000000        0.0000000000000000        0.0000000000000000        0.0000000000000000        0.0000000000000000        0.0000000000000000        0.0000000000000000        0.0000000000000000        0.0000000000000000        0.0000000000000000        0.0000000000000000        0.0000000000000000        0.0000000000000000        0.0000000000000000        0.0000000000000000        0.0000000000000000        0.0000000000000000        0.0000000000000000        0.0000000000000000        0.0000000000000000        0.0000000000000000        0.0000000000000000        0.0000000000000000        0.0000000000000000        0.0000000000000000        0.0000000000000000        0.0000000000000000        0.0000000000000000        0.0000000000000000        0.0000000000000000        0.0000000000000000        0.0000000000000000        0.0000000000000000        0.0000000000000000        0.0000000000000000        0.0000000000000000        0.0000000000000000        0.0000000000000000        0.0000000000000000        0.0000000000000000        0.0000000000000000        0.0000000000000000        0.0000000000000000        0.0000000000000000        0.0000000000000000        0.0000000000000000        0.0000000000000000        0.0000000000000000        0.0000000000000000        0.0000000000000000        0.0000000000000000        0.0000000000000000        0.0000000000000000        0.0000000000000000        0.0000000000000000        0.0000000000000000        0.0000000000000000        0.0000000000000000        0.0000000000000000        0.0000000000000000        0.0000000000000000        0.0000000000000000        0.0000000000000000        0.0000000000000000        0.0000000000000000        0.0000000000000000        0.0000000000000000        0.0000000000000000        0.0000000000000000        0.0000000000000000        0.0000000000000000        0.0000000000000000        0.0000000000000000        0.0000000000000000        0.0000000000000000        0.0000000000000000        0.0000000000000000        0.0000000000000000        0.0000000000000000        0.0000000000000000        0.0000000000000000        0.0000000000000000        0.0000000000000000        0.0000000000000000        0.0000000000000000        0.0000000000000000        0.0000000000000000        0.0000000000000000        0.0000000000000000        0.0000000000000000        0.0000000000000000        0.0000000000000000        0.0000000000000000        0.0000000000000000        0.0000000000000000        0.0000000000000000        0.0000000000000000        0.0000000000000000        0.0000000000000000        0.0000000000000000        0.0000000000000000        0.0000000000000000        0.0000000000000000        0.0000000000000000        0.0000000000000000        0.0000000000000000        0.0000000000000000        0.0000000000000000        0.0000000000000000        0.0000000000000000        0.0000000000000000        0.0000000000000000        0.0000000000000000        0.0000000000000000        0.0000000000000000        0.0000000000000000        0.0000000000000000        0.0000000000000000        0.0000000000000000        0.0000000000000000        0.0000000000000000        0.0000000000000000        0.0000000000000000        0.0000000000000000        0.0000000000000000        0.0000000000000000        0.0000000000000000        0.0000000000000000        0.0000000000000000        0.0000000000000000        0.0000000000000000        0.0000000000000000        0.0000000000000000        0.0000000000000000        0.0000000000000000        0.0000000000000000        0.0000000000000000        0.0000000000000000        0.0000000000000000        0.0000000000000000        0.0000000000000000        0.0000000000000000        0.0000000000000000        0.0000000000000000        0.0000000000000000        0.0000000000000000        0.0000000000000000        0.0000000000000000        0.0000000000000000        0.0000000000000000        0.0000000000000000        0.0000000000000000        0.0000000000000000        0.0000000000000000        0.0000000000000000        0.0000000000000000        0.0000000000000000        0.0000000000000000        0.0000000000000000        0.0000000000000000        0.0000000000000000        0.0000000000000000        0.0000000000000000        0.0000000000000000        0.0000000000000000        0.0000000000000000        0.0000000000000000        0.0000000000000000        0.0000000000000000        0.0000000000000000        0.0000000000000000        0.0000000000000000        0.0000000000000000        0.0000000000000000        0.0000000000000000        0.0000000000000000        0.0000000000000000        0.0000000000000000        0.0000000000000000        0.0000000000000000        0.0000000000000000        0.0000000000000000        0.0000000000000000        0.0000000000000000        0.0000000000000000        0.0000000000000000        0.0000000000000000        0.0000000000000000        0.0000000000000000        0.0000000000000000        0.0000000000000000        0.0000000000000000        0.0000000000000000        0.0000000000000000        0.0000000000000000        0.0000000000000000        0.0000000000000000        0.0000000000000000        0.0000000000000000        0.0000000000000000        0.0000000000000000        0.0000000000000000        0.0000000000000000        0.0000000000000000        0.0000000000000000        0.0000000000000000        0.0000000000000000        0.0000000000000000        0.0000000000000000        0.0000000000000000        0.0000000000000000        0.0000000000000000        0.0000000000000000        0.0000000000000000        0.0000000000000000        0.0000000000000000        0.0000000000000000        0.0000000000000000        0.0000000000000000        0.0000000000000000        0.0000000000000000        0.0000000000000000        0.0000000000000000        0.0000000000000000        0.0000000000000000        0.0000000000000000        0.0000000000000000        0.0000000000000000        0.0000000000000000        0.0000000000000000        0.0000000000000000        0.0000000000000000        0.0000000000000000        0.0000000000000000        0.0000000000000000        0.0000000000000000        0.0000000000000000        0.0000000000000000        0.0000000000000000        0.0000000000000000        0.0000000000000000        0.0000000000000000        0.0000000000000000        0.0000000000000000        0.0000000000000000        0.0000000000000000        0.0000000000000000        0.0000000000000000        0.0000000000000000        0.0000000000000000        0.0000000000000000        0.0000000000000000        0.0000000000000000        0.0000000000000000        0.0000000000000000        0.0000000000000000        0.0000000000000000        0.0000000000000000        0.0000000000000000        0.0000000000000000        0.0000000000000000        0.0000000000000000        0.0000000000000000        0.0000000000000000        0.0000000000000000        0.0000000000000000        0.0000000000000000        0.0000000000000000        0.0000000000000000        0.0000000000000000        0.0000000000000000        0.0000000000000000        0.0000000000000000        0.0000000000000000        0.0000000000000000        0.0000000000000000        0.0000000000000000        0.0000000000000000        0.0000000000000000        0.0000000000000000        0.0000000000000000        0.0000000000000000        0.0000000000000000        0.0000000000000000        0.0000000000000000        0.0000000000000000        0.0000000000000000        0.0000000000000000        0.0000000000000000        0.0000000000000000        0.0000000000000000        0.0000000000000000        0.0000000000000000        0.0000000000000000        0.0000000000000000        0.0000000000000000        0.0000000000000000        0.0000000000000000        0.0000000000000000        0.0000000000000000        0.0000000000000000        0.0000000000000000        0.0000000000000000        0.0000000000000000        0.0000000000000000        0.0000000000000000        0.0000000000000000        0.0000000000000000        0.0000000000000000        0.0000000000000000        0.0000000000000000        0.0000000000000000        0.0000000000000000        0.0000000000000000        0.0000000000000000        0.0000000000000000        0.0000000000000000        0.0000000000000000        0.0000000000000000        0.0000000000000000        0.0000000000000000        0.0000000000000000        0.0000000000000000        0.0000000000000000        0.0000000000000000        0.0000000000000000        0.0000000000000000        0.0000000000000000        0.0000000000000000        0.0000000000000000        0.0000000000000000        0.0000000000000000        0.0000000000000000        0.0000000000000000        0.0000000000000000        0.0000000000000000        0.0000000000000000        0.0000000000000000        0.0000000000000000        0.0000000000000000        0.0000000000000000        0.0000000000000000        0.0000000000000000        0.0000000000000000        0.0000000000000000        0.0000000000000000        0.0000000000000000        0.0000000000000000        0.0000000000000000        0.0000000000000000        0.0000000000000000        0.0000000000000000        0.0000000000000000        0.0000000000000000        0.0000000000000000        0.0000000000000000        0.0000000000000000        0.0000000000000000        0.0000000000000000        0.0000000000000000        0.0000000000000000        0.0000000000000000        0.0000000000000000        0.0000000000000000        0.0000000000000000        0.0000000000000000        0.0000000000000000        0.0000000000000000        0.0000000000000000        0.0000000000000000        0.0000000000000000        0.0000000000000000        0.0000000000000000        0.0000000000000000        0.0000000000000000        0.0000000000000000        0.0000000000000000        0.0000000000000000        0.0000000000000000        0.0000000000000000        0.0000000000000000        0.0000000000000000        0.0000000000000000        0.0000000000000000        0.0000000000000000        0.0000000000000000        0.0000000000000000        0.0000000000000000        0.0000000000000000        0.0000000000000000        0.0000000000000000        0.0000000000000000        0.0000000000000000        0.0000000000000000        0.0000000000000000        0.0000000000000000        0.0000000000000000        0.0000000000000000        0.0000000000000000        0.0000000000000000        0.0000000000000000        0.0000000000000000        0.0000000000000000        0.0000000000000000        0.0000000000000000        0.0000000000000000        0.0000000000000000        0.0000000000000000        0.0000000000000000        0.0000000000000000        0.0000000000000000        0.0000000000000000        0.0000000000000000        0.0000000000000000        0.0000000000000000        0.0000000000000000        0.0000000000000000        0.0000000000000000        0.0000000000000000        0.0000000000000000        0.0000000000000000        0.0000000000000000        0.0000000000000000        0.0000000000000000        0.0000000000000000        0.0000000000000000        0.0000000000000000        0.0000000000000000        0.0000000000000000        0.0000000000000000        0.0000000000000000        0.0000000000000000        0.0000000000000000        0.0000000000000000        0.0000000000000000        0.0000000000000000        0.0000000000000000        0.0000000000000000        0.0000000000000000        0.0000000000000000        0.0000000000000000        0.0000000000000000        0.0000000000000000        0.0000000000000000        0.0000000000000000        0.0000000000000000        0.0000000000000000        0.0000000000000000        0.0000000000000000        0.0000000000000000        0.0000000000000000        0.0000000000000000        0.0000000000000000        0.0000000000000000        0.0000000000000000        0.0000000000000000        0.0000000000000000        0.0000000000000000        0.0000000000000000        0.0000000000000000        0.0000000000000000        0.0000000000000000        0.0000000000000000        0.0000000000000000        0.0000000000000000        0.0000000000000000        0.0000000000000000        0.0000000000000000        0.0000000000000000        0.0000000000000000        0.0000000000000000        0.0000000000000000        0.0000000000000000        0.0000000000000000        0.0000000000000000        0.0000000000000000        0.0000000000000000        0.0000000000000000        0.0000000000000000        0.0000000000000000        0.0000000000000000        0.0000000000000000        0.0000000000000000        0.0000000000000000        0.0000000000000000        0.0000000000000000        0.0000000000000000        0.0000000000000000        0.0000000000000000        0.0000000000000000     
 SCALARS v double
 LOOKUP_TABLE default