# vtk DataFile Version 2.0
 Flow
 ASCII
 DATASET STRUCTURED_GRID
 FIELD FieldData 1
 TIME 1 1 double
   3.1000000000000000E-004
 DIMENSIONS         401           2           1
 POINTS         802 double
   0.0000000000000000        0.0000000000000000        0.0000000000000000     
   2.5000000000000001E-003   0.0000000000000000        0.0000000000000000     
   5.0000000000000001E-003   0.0000000000000000        0.0000000000000000     
   7.4999999999999997E-003   0.0000000000000000        0.0000000000000000     
   1.0000000000000000E-002   0.0000000000000000        0.0000000000000000     
   1.2500000000000001E-002   0.0000000000000000        0.0000000000000000     
   1.4999999999999999E-002   0.0000000000000000        0.0000000000000000     
   1.7500000000000002E-002   0.0000000000000000        0.0000000000000000     
   2.0000000000000000E-002   0.0000000000000000        0.0000000000000000     
   2.2499999999999999E-002   0.0000000000000000        0.0000000000000000     
   2.5000000000000001E-002   0.0000000000000000        0.0000000000000000     
   2.7500000000000000E-002   0.0000000000000000        0.0000000000000000     
   2.9999999999999999E-002   0.0000000000000000        0.0000000000000000     
   3.2500000000000001E-002   0.0000000000000000        0.0000000000000000     
   3.5000000000000003E-002   0.0000000000000000        0.0000000000000000     
   3.7499999999999999E-002   0.0000000000000000        0.0000000000000000     
   4.0000000000000001E-002   0.0000000000000000        0.0000000000000000     
   4.2500000000000003E-002   0.0000000000000000        0.0000000000000000     
   4.4999999999999998E-002   0.0000000000000000        0.0000000000000000     
   4.7500000000000001E-002   0.0000000000000000        0.0000000000000000     
   5.0000000000000003E-002   0.0000000000000000        0.0000000000000000     
   5.2499999999999998E-002   0.0000000000000000        0.0000000000000000     
   5.5000000000000000E-002   0.0000000000000000        0.0000000000000000     
   5.7500000000000002E-002   0.0000000000000000        0.0000000000000000     
   5.9999999999999998E-002   0.0000000000000000        0.0000000000000000     
   6.2500000000000000E-002   0.0000000000000000        0.0000000000000000     
   6.5000000000000002E-002   0.0000000000000000        0.0000000000000000     
   6.7500000000000004E-002   0.0000000000000000        0.0000000000000000     
   7.0000000000000007E-002   0.0000000000000000        0.0000000000000000     
   7.2499999999999995E-002   0.0000000000000000        0.0000000000000000     
   7.4999999999999997E-002   0.0000000000000000        0.0000000000000000     
   7.7499999999999999E-002   0.0000000000000000        0.0000000000000000     
   8.0000000000000002E-002   0.0000000000000000        0.0000000000000000     
   8.2500000000000004E-002   0.0000000000000000        0.0000000000000000     
   8.5000000000000006E-002   0.0000000000000000        0.0000000000000000     
   8.7500000000000008E-002   0.0000000000000000        0.0000000000000000     
   8.9999999999999997E-002   0.0000000000000000        0.0000000000000000     
   9.2499999999999999E-002   0.0000000000000000        0.0000000000000000     
   9.5000000000000001E-002   0.0000000000000000        0.0000000000000000     
   9.7500000000000003E-002   0.0000000000000000        0.0000000000000000     
  0.10000000000000001        0.0000000000000000        0.0000000000000000     
  0.10250000000000001        0.0000000000000000        0.0000000000000000     
  0.10500000000000000        0.0000000000000000        0.0000000000000000     
  0.10750000000000000        0.0000000000000000        0.0000000000000000     
  0.11000000000000000        0.0000000000000000        0.0000000000000000     
  0.11250000000000000        0.0000000000000000        0.0000000000000000     
  0.11500000000000000        0.0000000000000000        0.0000000000000000     
  0.11750000000000001        0.0000000000000000        0.0000000000000000     
  0.12000000000000000        0.0000000000000000        0.0000000000000000     
  0.12250000000000000        0.0000000000000000        0.0000000000000000     
  0.12500000000000000        0.0000000000000000        0.0000000000000000     
  0.12750000000000000        0.0000000000000000        0.0000000000000000     
  0.13000000000000000        0.0000000000000000        0.0000000000000000     
  0.13250000000000001        0.0000000000000000        0.0000000000000000     
  0.13500000000000001        0.0000000000000000        0.0000000000000000     
  0.13750000000000001        0.0000000000000000        0.0000000000000000     
  0.14000000000000001        0.0000000000000000        0.0000000000000000     
  0.14250000000000002        0.0000000000000000        0.0000000000000000     
  0.14499999999999999        0.0000000000000000        0.0000000000000000     
  0.14749999999999999        0.0000000000000000        0.0000000000000000     
  0.14999999999999999        0.0000000000000000        0.0000000000000000     
  0.15250000000000000        0.0000000000000000        0.0000000000000000     
  0.15500000000000000        0.0000000000000000        0.0000000000000000     
  0.15750000000000000        0.0000000000000000        0.0000000000000000     
  0.16000000000000000        0.0000000000000000        0.0000000000000000     
  0.16250000000000001        0.0000000000000000        0.0000000000000000     
  0.16500000000000001        0.0000000000000000        0.0000000000000000     
  0.16750000000000001        0.0000000000000000        0.0000000000000000     
  0.17000000000000001        0.0000000000000000        0.0000000000000000     
  0.17250000000000001        0.0000000000000000        0.0000000000000000     
  0.17500000000000002        0.0000000000000000        0.0000000000000000     
  0.17749999999999999        0.0000000000000000        0.0000000000000000     
  0.17999999999999999        0.0000000000000000        0.0000000000000000     
  0.18250000000000000        0.0000000000000000        0.0000000000000000     
  0.18500000000000000        0.0000000000000000        0.0000000000000000     
  0.18750000000000000        0.0000000000000000        0.0000000000000000     
  0.19000000000000000        0.0000000000000000        0.0000000000000000     
  0.19250000000000000        0.0000000000000000        0.0000000000000000     
  0.19500000000000001        0.0000000000000000        0.0000000000000000     
  0.19750000000000001        0.0000000000000000        0.0000000000000000     
  0.20000000000000001        0.0000000000000000        0.0000000000000000     
  0.20250000000000001        0.0000000000000000        0.0000000000000000     
  0.20500000000000002        0.0000000000000000        0.0000000000000000     
  0.20750000000000002        0.0000000000000000        0.0000000000000000     
  0.20999999999999999        0.0000000000000000        0.0000000000000000     
  0.21249999999999999        0.0000000000000000        0.0000000000000000     
  0.21500000000000000        0.0000000000000000        0.0000000000000000     
  0.21750000000000000        0.0000000000000000        0.0000000000000000     
  0.22000000000000000        0.0000000000000000        0.0000000000000000     
  0.22250000000000000        0.0000000000000000        0.0000000000000000     
  0.22500000000000001        0.0000000000000000        0.0000000000000000     
  0.22750000000000001        0.0000000000000000        0.0000000000000000     
  0.23000000000000001        0.0000000000000000        0.0000000000000000     
  0.23250000000000001        0.0000000000000000        0.0000000000000000     
  0.23500000000000001        0.0000000000000000        0.0000000000000000     
  0.23750000000000002        0.0000000000000000        0.0000000000000000     
  0.23999999999999999        0.0000000000000000        0.0000000000000000     
  0.24249999999999999        0.0000000000000000        0.0000000000000000     
  0.24500000000000000        0.0000000000000000        0.0000000000000000     
  0.24750000000000000        0.0000000000000000        0.0000000000000000     
  0.25000000000000000        0.0000000000000000        0.0000000000000000     
  0.25250000000000000        0.0000000000000000        0.0000000000000000     
  0.25500000000000000        0.0000000000000000        0.0000000000000000     
  0.25750000000000001        0.0000000000000000        0.0000000000000000     
  0.26000000000000001        0.0000000000000000        0.0000000000000000     
  0.26250000000000001        0.0000000000000000        0.0000000000000000     
  0.26500000000000001        0.0000000000000000        0.0000000000000000     
  0.26750000000000002        0.0000000000000000        0.0000000000000000     
  0.27000000000000002        0.0000000000000000        0.0000000000000000     
  0.27250000000000002        0.0000000000000000        0.0000000000000000     
  0.27500000000000002        0.0000000000000000        0.0000000000000000     
  0.27750000000000002        0.0000000000000000        0.0000000000000000     
  0.28000000000000003        0.0000000000000000        0.0000000000000000     
  0.28250000000000003        0.0000000000000000        0.0000000000000000     
  0.28500000000000003        0.0000000000000000        0.0000000000000000     
  0.28750000000000003        0.0000000000000000        0.0000000000000000     
  0.28999999999999998        0.0000000000000000        0.0000000000000000     
  0.29249999999999998        0.0000000000000000        0.0000000000000000     
  0.29499999999999998        0.0000000000000000        0.0000000000000000     
  0.29749999999999999        0.0000000000000000        0.0000000000000000     
  0.29999999999999999        0.0000000000000000        0.0000000000000000     
  0.30249999999999999        0.0000000000000000        0.0000000000000000     
  0.30499999999999999        0.0000000000000000        0.0000000000000000     
  0.30750000000000000        0.0000000000000000        0.0000000000000000     
[...]
 CELL_DATA         400
 SCALARS u double
 LOOKUP_TABLE default
   2.5567047793799035E-162   3.3029105583557687E-160   3.9766220644297863E-158   4.4542354335989774E-156   4.6642186761663002E-154   4.5863096972720078E-152   4.2521392074475713E-150   3.7313625418362039E-148   3.1102955852253173E-146   2.4711024910580460E-144   1.8773385029555469E-142   1.3679669838264336E-140   9.5869607689410419E-139   6.4769760869456418E-137   4.2261084746105436E-135   2.6664407436915904E-133   1.6280178143410664E-131   9.6216129289615014E-130   5.5043108866210403E-128   3.0477418174487229E-126   1.6331781653918980E-124   8.4697742496442692E-123   4.2516124476529469E-121   2.0663181896187330E-119   9.7267833561441343E-118   4.4368565624210146E-116   1.9622464259221107E-114   8.4192358135309234E-113   3.5069992611540639E-111   1.4193312429387461E-109   5.5859751397717613E-108   2.1399430548966926E-106   7.9881256255462243E-105   2.9086748250795420E-103   1.0342373651082325E-101   3.5947447485069485E-100   1.2225114864600978E-098   4.0714375100234496E-097   1.3288784436537650E-095   4.2537093683863152E-094   1.3362362783289389E-092   4.1221285146123395E-091   1.2496444015900643E-089   3.7256056129505690E-088   1.0931346708924173E-086   3.1587316013386952E-085   8.9939278815486794E-084   2.5241996854849775E-082   6.9832508205856839E-081   1.9039418758379694E-079   5.1134952454637200E-078   1.3520834952285153E-076   3.5177648446183945E-075   9.0016625335272906E-074   2.2651255791818750E-072   5.6057638164662382E-071   1.3650952002411826E-069   3.2737143755443560E-068   7.7404541433883066E-067   1.8069277533538574E-065   4.1708271401236418E-064   9.5337878607291383E-063   2.1609538158950484E-061   4.8615482623137428E-060   1.0860212080445913E-058   2.4086804984544425E-057   5.3008529283185207E-056   1.1566087626235976E-054   2.4999787835974330E-053   5.3485883155936590E-052   1.1315836385816139E-050   2.3643397624471330E-049   4.8696540591909966E-048   9.8630013453742677E-047   1.9592287246483781E-045   3.8074553655178415E-044   7.2246867622846617E-043   1.3372015149192427E-041   2.4144582592604013E-040   4.2587537276233513E-039   7.3575890187783213E-038   1.2497659219890114E-036   2.0966985729336547E-035   3.4900186677858658E-034   5.7843579573458166E-033   9.5636525082675598E-032   1.5774216325164768E-030   2.5924504857796170E-029   4.2393098310210200E-028   6.8913867608111060E-027   1.1137333696005410E-025   1.7905461251433955E-024   2.8682629244775004E-023   4.5792418861819754E-022   7.3110094477317600E-021   1.1615362783064610E-019   1.8622984254419672E-018   2.9170065315785860E-017   4.8278418471449957E-016   6.9802339742137426E-015   6.1094993623379545E-014   1.4480602511297053E-013   4.3696222896030647E-013   1.2860922152701405E-012   3.8873211718893900E-012   1.1305588250424903E-011   3.2374423499071016E-011   9.1009096612978677E-011   2.5107350001279459E-010   6.7962914514778179E-010   1.8050162802989495E-009   4.7038955622584636E-009   1.2026886905070501E-008   3.0166964376805839E-008   7.4227171167375754E-008   1.7915133346576675E-007   4.2410426219433789E-007   9.8466749055910960E-007   2.2420125220122237E-006   5.0059065641104720E-006   1.0959384422221901E-005   2.3523858819644776E-005   4.9500391027813154E-005   1.0210446121585102E-004   2.0643121101420988E-004   4.0903222194270438E-004   7.9422949737957505E-004   1.5110981013254639E-003   2.8167648062522466E-003   5.1436333747294366E-003   9.2001789198495401E-003   1.6116579430829690E-002   2.7646874739178550E-002   4.6437574238474930E-002   7.6367120002473685E-002  0.12294988476158152       0.19378239080366896       0.29899063737349491       0.45161852582870382       0.66788041670224707       0.96719386924006523        1.3719216081651862        1.9067849005955404        2.5979647038474361        3.4719656571860047        4.5541395983140180        5.8675646623800901        7.4321700741600836        9.2630511441707490        11.370681133227162        13.760825691756551        16.433729553272926        19.385662690964299        22.609318364923652        26.093986072948262        29.827188320621257        33.794906283305139        37.981943400459990        42.373128543845212        46.953150227335129        51.707019135129670        56.620464902069592        61.680153210562395        66.873810855328671        72.190157045000333        77.618622977310011        83.149268580334038        88.772918418589569        94.481275702165604        100.26698484623269        106.12355806109375        112.04532792549522        118.02675091922980        124.06233845122208        130.14762999259702        136.27841500979639        142.45087534649034        148.66144282341429        154.90675338492352        161.18363202202158        167.48904605779506        173.82004701433746        180.17371365677323        186.54708321500183        192.93703395671466        199.34011628570019        205.75286381616218        212.17203607770901        218.59095050438103        225.00487476061053        231.40646494859345        237.78763146889889        244.13678266940897        250.43892206842611        256.67144091904225        262.80162648299472        268.78241469915486        274.54075599745426        279.96148565735399        284.86219859624191        288.96808917018899        291.92981904746716        293.50869548621404        293.95802980697340        293.95821155486442        293.89195069648406        293.83067690822543        293.77888754959253        293.73534172839334        293.69763106402297        293.66390524559375        293.63385943074809        293.60840276940593        293.58792809782540        293.57084666326728        293.55398137189871        293.53594260794182        293.51817745407209        293.50242087930769        293.48814787670983        293.47519710409290        293.46417127266659        293.45387830434089        293.44463737866892        293.43719670104309        293.43009941869491        293.42390291698990        293.41754397002626        293.41190127462323        293.40549252063278        293.40133912629625        293.39759400724267        293.39407926390288        293.39076497766035        293.38767577488329        293.38503294485156        293.38435200286625        293.38736120737343        293.38754060017459        293.38780161667654        293.38690701436218        293.38624577544721        293.38358124692007        293.37971108242073        293.37766846894772        293.37617682044225        293.37586417589154        293.37646902020066        293.37770486706398        293.37925767148818        293.38174912679909        293.38472456524823        293.38815698630521        293.39191240785192        293.39545303238123        293.39786671379085        293.39756053861129        293.39096387217006        293.37020664817800        293.31895825026749        293.20347127147420        292.95371849514441        292.42638666466780        291.33151819296131        289.08499242559100        284.53048667487690        275.45145008169044        257.88715617821509        225.84680537314196        173.94420873670848        107.22211145286306        48.813433462532508        16.898185331943250        5.0157812831276241        1.4027003449195317       0.38494359292196095       0.10505020767141240        2.8619749067192599E-002   7.7941804989098678E-003   2.1232545443319942E-003   5.7884178136749758E-004   1.5795267900864398E-004   4.3130370333745043E-005   1.1774818370681242E-005   3.2096719002590350E-006   8.7230406377935101E-007   2.3608967214783062E-007   6.3604506848622458E-008   1.7065266385610693E-008   4.5666435681286691E-009   1.2212647288305777E-009   3.2657990312279457E-010   8.7047607799758019E-011   2.3001161879492806E-011   6.0172424003982011E-012   1.5661448584661469E-012   4.2945411691514609E-013   1.2440995234181296E-013   4.0854224170847040E-014   2.6054200539963879E-015   1.2607755118883182E-016   6.8061226099358631E-018   3.4922306918649717E-019   1.8379594835593300E-020   9.6965983517889540E-022   5.2339202139342006E-023   2.9011674665280739E-024   1.6623440691563643E-025   9.7908582650912683E-027   5.8455893984091157E-028   3.4735652711307143E-029   2.0228757510146626E-030   1.1444208681934422E-031   6.2792796396330920E-033   3.3536560920337006E-034   1.7538749190240698E-035   9.0292591456456603E-037   4.5885945575312951E-038   2.3017517019097059E-039   1.1373936558800269E-040   5.5204158300694939E-042   2.6237692967923657E-043   1.2178620502194632E-044   5.5089123987899422E-046   2.4250312541704158E-047   1.0381706593151460E-048   4.3224725758428719E-050   1.7512047274080972E-051   6.9090143885945026E-053   2.6563946158571430E-054   9.9588732507520750E-056   3.6421799578827000E-057   1.3002891301362613E-058   4.5384495934392923E-060   1.5535189952761884E-061   5.2430135030886705E-063   1.7580599055968532E-064   5.9113228344718723E-066   2.0109162743221989E-067   6.9627484286682093E-069   2.4571413936355771E-070   8.8084980738047300E-072   3.1877771577148813E-073   1.1566079072322954E-074   4.1821228781913272E-076   1.5003981650764061E-077   5.3256766544458343E-079   1.8671822678557351E-080   6.4607633232428213E-082   2.2055843817035975E-083   7.4281433037612611E-085   2.4681893680677460E-086   8.0918593537962811E-088   2.6175013797275137E-089   8.3526004774513874E-091   2.6283120860287666E-092   8.1498745350183920E-094   2.4877890815527229E-095   7.4667216900876583E-097   2.2004465341954101E-098   6.3589336102962916E-100   1.8000402691807948E-101   4.9880853813950991E-103   1.3532013207756435E-104   3.5973225547560218E-106   9.3900508234704591E-108   2.4145347869499745E-109   6.1430288603828176E-111   1.5544535796761649E-112   3.9330328956474103E-114   9.9938830412235322E-116   2.5563798060345041E-117   6.5805875427175817E-119   1.6997376497105788E-120   4.3842359716481823E-122   1.1229141399657323E-123   2.8398528765831979E-125   7.0556801651353124E-127   1.7147430360410939E-128   4.0617727837976272E-130   9.3495093548637836E-132   2.0859977294479008E-133   4.5011219023400272E-135   9.3740218591643554E-137   1.8805912975883666E-138   3.6275338964740445E-140   6.7152290086137056E-142   1.1907124592095793E-143   2.0182723617814616E-145   3.2633326023818049E-147   5.0219412639277215E-149   7.3376073845623156E-151   1.0152234449659169E-152   1.3262781966343622E-154   1.6307337746003322E-156   1.8804356518452362E-158   2.0254512947703223E-160   2.0286276473273558E-162   1.8795116277934297E-164   1.6136334023375956E-166
 SCALARS v double
 LOOKUP_TABLE default