# vtk DataFile Version 2.0
 Flow
 ASCII
 DATASET STRUCTURED_GRID
 FIELD FieldData 1
 TIME 1 1 double
   3.1000000000000000E-004
 DIMENSIONS         101           2           1
 POINTS         202 double
  0.25000000000000000        0.0000000000000000        0.0000000000000000     
  0.25250000000000000        0.0000000000000000        0.0000000000000000     
  0.25500000000000000        0.0000000000000000        0.0000000000000000     
  0.25750000000000001        0.0000000000000000        0.0000000000000000     
  0.26000000000000001        0.0000000000000000        0.0000000000000000     
  0.26250000000000001        0.0000000000000000        0.0000000000000000     
  0.26500000000000001        0.0000000000000000        0.0000000000000000     
  0.26750000000000002        0.0000000000000000        0.0000000000000000     
  0.27000000000000002        0.0000000000000000        0.0000000000000000     
  0.27250000000000002        0.0000000000000000        0.0000000000000000     
  0.27500000000000002        0.0000000000000000        0.0000000000000000     
  0.27750000000000002        0.0000000000000000        0.0000000000000000     
  0.28000000000000003        0.0000000000000000        0.0000000000000000     
  0.28250000000000003        0.0000000000000000        0.0000000000000000     
  0.28500000000000003        0.0000000000000000        0.0000000000000000     
  0.28750000000000003        0.0000000000000000        0.0000000000000000     
  0.28999999999999998        0.0000000000000000        0.0000000000000000     
  0.29249999999999998        0.0000000000000000        0.0000000000000000     
  0.29499999999999998        0.0000000000000000        0.0000000000000000     
  0.29749999999999999        0.0000000000000000        0.0000000000000000     
  0.29999999999999999        0.0000000000000000        0.0000000000000000     
  0.30249999999999999        0.0000000000000000        0.0000000000000000     
  0.30499999999999999        0.0000000000000000        0.0000000000000000     
  0.30750000000000000        0.0000000000000000        0.0000000000000000     
  0.31000000000000000        0.0000000000000000        0.0000000000000000     
  0.31250000000000000        0.0000000000000000        0.0000000000000000     
  0.31500000000000000        0.0000000000000000        0.0000000000000000     
  0.31750000000000000        0.0000000000000000        0.0000000000000000     
  0.32000000000000001        0.0000000000000000        0.0000000000000000     
  0.32250000000000001        0.0000000000000000        0.0000000000000000     
  0.32500000000000001        0.0000000000000000        0.0000000000000000     
  0.32750000000000001        0.0000000000000000        0.0000000000000000     
  0.33000000000000002        0.0000000000000000        0.0000000000000000     
  0.33250000000000002        0.0000000000000000        0.0000000000000000     
  0.33500000000000002        0.0000000000000000        0.0000000000000000     
  0.33750000000000002        0.0000000000000000        0.0000000000000000     
  0.34000000000000002        0.0000000000000000        0.0000000000000000     
  0.34250000000000003        0.0000000000000000        0.0000000000000000     
  0.34500000000000003        0.0000000000000000        0.0000000000000000     
  0.34750000000000003        0.0000000000000000        0.0000000000000000     
  0.35000000000000003        0.0000000000000000        0.0000000000000000     
  0.35249999999999998        0.0000000000000000        0.0000000000000000     
  0.35499999999999998        0.0000000000000000        0.0000000000000000     
  0.35749999999999998        0.0000000000000000        0.0000000000000000     
  0.35999999999999999        0.0000000000000000        0.0000000000000000     
  0.36249999999999999        0.0000000000000000        0.0000000000000000     
  0.36499999999999999        0.0000000000000000        0.0000000000000000     
  0.36749999999999999        0.0000000000000000        0.0000000000000000     
  0.37000000000000000        0.0000000000000000        0.0000000000000000     
  0.37250000000000000        0.0000000000000000        0.0000000000000000     
  0.37500000000000000        0.0000000000000000        0.0000000000000000     
  0.37750000000000000        0.0000000000000000        0.0000000000000000     
  0.38000000000000000        0.0000000000000000        0.0000000000000000     
  0.38250000000000001        0.0000000000000000        0.0000000000000000     
  0.38500000000000001        0.0000000000000000        0.0000000000000000     
  0.38750000000000001        0.0000000000000000        0.0000000000000000     
  0.39000000000000001        0.0000000000000000        0.0000000000000000     
  0.39250000000000002        0.0000000000000000        0.0000000000000000     
  0.39500000000000002        0.0000000000000000        0.0000000000000000     
  0.39750000000000002        0.0000000000000000        0.0000000000000000     
  0.40000000000000002        0.0000000000000000        0.0000000000000000     
  0.40250000000000002        0.0000000000000000        0.0000000000000000     
  0.40500000000000003        0.0000000000000000        0.0000000000000000     
  0.40750000000000003        0.0000000000000000        0.0000000000000000     
  0.41000000000000003        0.0000000000000000        0.0000000000000000     
  0.41250000000000003        0.0000000000000000        0.0000000000000000     
  0.41500000000000004        0.0000000000000000        0.0000000000000000     
  0.41749999999999998        0.0000000000000000        0.0000000000000000     
  0.41999999999999998        0.0000000000000000        0.0000000000000000     
  0.42249999999999999        0.0000000000000000        0.0000000000000000     
  0.42499999999999999        0.0000000000000000        0.0000000000000000     
  0.42749999999999999        0.0000000000000000        0.0000000000000000     
  0.42999999999999999        0.0000000000000000        0.0000000000000000     
  0.43250000000000000        0.0000000000000000        0.0000000000000000     
  0.43500000000000000        0.0000000000000000        0.0000000000000000     
  0.43750000000000000        0.0000000000000000        0.0000000000000000     
  0.44000000000000000        0.0000000000000000        0.0000000000000000     
  0.44250000000000000        0.0000000000000000        0.0000000000000000     
  0.44500000000000001        0.0000000000000000        0.0000000000000000     
  0.44750000000000001        0.0000000000000000        0.0000000000000000     
  0.45000000000000001        0.0000000000000000        0.0000000000000000     
  0.45250000000000001        0.0000000000000000        0.0000000000000000     
  0.45500000000000002        0.0000000000000000        0.0000000000000000     
  0.45750000000000002        0.0000000000000000        0.0000000000000000     
  0.46000000000000002        0.0000000000000000        0.0000000000000000     
  0.46250000000000002        0.0000000000000000        0.0000000000000000     
  0.46500000000000002        0.0000000000000000        0.0000000000000000     
  0.46750000000000003        0.0000000000000000        0.0000000000000000     
  0.47000000000000003        0.0000000000000000        0.0000000000000000     
  0.47250000000000003        0.0000000000000000        0.0000000000000000     
  0.47500000000000003        0.0000000000000000        0.0000000000000000     
  0.47750000000000004        0.0000000000000000        0.0000000000000000     
  0.47999999999999998        0.0000000000000000        0.0000000000000000     
  0.48249999999999998        0.0000000000000000        0.0000000000000000     
  0.48499999999999999        0.0000000000000000        0.0000000000000000     
  0.48749999999999999        0.0000000000000000        0.0000000000000000     
  0.48999999999999999        0.0000000000000000        0.0000000000000000     
  0.49249999999999999        0.0000000000000000        0.0000000000000000     
  0.49500000000000000        0.0000000000000000        0.0000000000000000     
  0.49750000000000000        0.0000000000000000        0.0000000000000000     
  0.50000000000000000        0.0000000000000000        0.0000000000000000     
  0.25000000000000000        1.0000000000000000        0.0000000000000000     
  0.25250000000000000        1.0000000000000000        0.0000000000000000     
  0.25500000000000000        1.0000000000000000        0.0000000000000000     
  0.25750000000000001        1.0000000000000000        0.0000000000000000     
  0.26000000000000001        1.0000000000000000        0.0000000000000000     
  0.26250000000000001        1.0000000000000000        0.0000000000000000     
  0.26500000000000001        1.0000000000000000        0.0000000000000000     
  0.26750000000000002        1.0000000000000000        0.0000000000000000     
  0.27000000000000002        1.0000000000000000        0.0000000000000000     
  0.27250000000000002        1.0000000000000000        0.0000000000000000     
  0.27500000000000002        1.0000000000000000        0.0000000000000000     
  0.27750000000000002        1.0000000000000000        0.0000000000000000     
  0.28000000000000003        1.0000000000000000        0.0000000000000000     
  0.28250000000000003        1.0000000000000000        0.0000000000000000     
  0.28500000000000003        1.0000000000000000        0.0000000000000000     
  0.28750000000000003        1.0000000000000000        0.0000000000000000     
  0.28999999999999998        1.0000000000000000        0.0000000000000000     
  0.29249999999999998        1.0000000000000000        0.0000000000000000     
  0.29499999999999998        1.0000000000000000        0.0000000000000000     
  0.29749999999999999        1.0000000000000000        0.0000000000000000     
  0.29999999999999999        1.0000000000000000        0.0000000000000000     
  0.30249999999999999        1.0000000000000000        0.0000000000000000     
  0.30499999999999999        1.0000000000000000        0.0000000000000000     
  0.30750000000000000        1.0000000000000000        0.0000000000000000     
  0.31000000000000000        1.0000000000000000        0.0000000000000000     
  0.31250000000000000        1.0000000000000000        0.0000000000000000     
  0.31500000000000000        1.0000000000000000        0.0000000000000000     
  0.31750000000000000        1.0000000000000000        0.0000000000000000     
  0.32000000000000001        1.0000000000000000        0.0000000000000000     
  0.32250000000000001        1.0000000000000000        0.0000000000000000     
  0.32500000000000001        1.0000000000000000        0.0000000000000000     
  0.32750000000000001        1.0000000000000000        0.0000000000000000     
  0.33000000000000002        1.0000000000000000        0.0000000000000000     
  0.33250000000000002        1.0000000000000000        0.0000000000000000     
  0.33500000000000002        1.0000000000000000        0.0000000000000000     
  0.33750000000000002        1.0000000000000000        0.0000000000000000     
  0.34000000000000002        1.0000000000000000        0.0000000000000000     
  0.34250000000000003        1.0000000000000000        0.0000000000000000     
  0.34500000000000003        1.0000000000000000        0.0000000000000000     
  0.34750000000000003        1.0000000000000000        0.0000000000000000     
  0.35000000000000003        1.0000000000000000        0.0000000000000000     
  0.35249999999999998        1.0000000000000000        0.0000000000000000     
  0.35499999999999998        1.0000000000000000        0.0000000000000000     
  0.35749999999999998        1.0000000000000000        0.0000000000000000     
  0.35999999999999999        1.0000000000000000        0.0000000000000000     
  0.36249999999999999        1.0000000000000000        0.0000000000000000     
  0.36499999999999999        1.0000000000000000        0.0000000000000000     
  0.36749999999999999        1.0000000000000000        0.0000000000000000     
  0.37000000000000000        1.0000000000000000        0.0000000000000000     
  0.37250000000000000        1.0000000000000000        0.0000000000000000     
  0.37500000000000000        1.0000000000000000        0.0000000000000000     
  0.37750000000000000        1.0000000000000000        0.0000000000000000     
  0.38000000000000000        1.0000000000000000        0.0000000000000000     
  0.38250000000000001        1.0000000000000000        0.0000000000000000     
  0.38500000000000001        1.0000000000000000        0.0000000000000000     
  0.38750000000000001        1.0000000000000000        0.0000000000000000     
  0.39000000000000001        1.0000000000000000        0.0000000000000000     
  0.39250000000000002        1.0000000000000000        0.0000000000000000     
  0.39500000000000002        1.0000000000000000        0.0000000000000000     
  0.39750000000000002        1.0000000000000000        0.0000000000000000     
  0.40000000000000002        1.0000000000000000        0.0000000000000000     
  0.40250000000000002        1.0000000000000000        0.0000000000000000     
  0.40500000000000003        1.0000000000000000        0.0000000000000000     
  0.40750000000000003        1.0000000000000000        0.0000000000000000     
  0.41000000000000003        1.0000000000000000        0.0000000000000000     
  0.41250000000000003        1.0000000000000000        0.0000000000000000     
  0.41500000000000004        1.0000000000000000        0.0000000000000000     
  0.41749999999999998        1.0000000000000000        0.0000000000000000     
  0.41999999999999998        1.0000000000000000        0.0000000000000000     
  0.42249999999999999        1.0000000000000000        0.0000000000000000     
  0.42499999999999999        1.0000000000000000        0.0000000000000000     
  0.42749999999999999        1.0000000000000000        0.0000000000000000     
  0.42999999999999999        1.0000000000000000        0.0000000000000000     
  0.43250000000000000        1.0000000000000000        0.0000000000000000     
  0.43500000000000000        1.0000000000000000        0.0000000000000000     
  0.43750000000000000        1.0000000000000000        0.0000000000000000     
  0.44000000000000000        1.0000000000000000        0.0000000000000000     
  0.44250000000000000        1.0000000000000000        0.0000000000000000     
  0.44500000000000001        1.0000000000000000        0.0000000000000000     
  0.44750000000000001        1.0000000000000000        0.0000000000000000     
  0.45000000000000001        1.0000000000000000        0.0000000000000000     
  0.45250000000000001        1.0000000000000000        0.0000000000000000     
  0.45500000000000002        1.0000000000000000        0.0000000000000000     
  0.45750000000000002        1.0000000000000000        0.0000000000000000     
  0.46000000000000002        1.0000000000000000        0.0000000000000000     
  0.46250000000000002        1.0000000000000000        0.0000000000000000     
  0.46500000000000002        1.0000000000000000        0.0000000000000000     
  0.46750000000000003        1.0000000000000000        0.0000000000000000     
  0.47000000000000003        1.0000000000000000        0.0000000000000000     
  0.47250000000000003        1.0000000000000000        0.0000000000000000     
  0.47500000000000003        1.0000000000000000        0.0000000000000000     
  0.47750000000000004        1.0000000000000000        0.0000000000000000     
  0.47999999999999998        1.0000000000000000        0.0000000000000000     
  0.48249999999999998        1.0000000000000000        0.0000000000000000     
  0.48499999999999999        1.0000000000000000        0.0000000000000000     
  0.48749999999999999        1.0000000000000000        0.0000000000000000     
  0.48999999999999999        1.0000000000000000        0.0000000000000000     
  0.49249999999999999        1.0000000000000000        0.0000000000000000     
  0.49500000000000000        1.0000000000000000        0.0000000000000000     
  0.49750000000000000        1.0000000000000000        0.0000000000000000     
  0.50000000000000000        1.0000000000000000        0.0000000000000000     
 CELL_DATA         100
 SCALARS u double
 LOOKUP_TABLE default
   6.1056393057358979E-014   1.4437117236239034E-013   4.3459981658702875E-013   1.2781668316504354E-012   3.8587286693081505E-012   1.1306123446139486E-011   3.2351375374383266E-011   9.0914500328935465E-011   2.5081323304186685E-010   6.7906429686498636E-010   1.8038864982192501E-009   4.7014633857414013E-009   1.2021600419285039E-008   3.0155463161394531E-008   7.4202492708056086E-008   1.7909839416770634E-007   4.2399060202009860E-007   9.8442105283167600E-007   2.2414706130508005E-006   5.0047039454722953E-006   1.0956729743000607E-005   2.3518143372425512E-005   4.9488606805420742E-005   1.0208134196613423E-004   2.0638757534093544E-004   4.0895178517981278E-004   7.9408262508178168E-004   1.5108325719571400E-003   2.8162722779569616E-003   5.1426864516664400E-003   9.1983798888264929E-003   1.6113407582733785E-002   2.7641923644714350E-002   4.6430870061404575E-002   7.6359128750810065E-002  0.12294094968231419       0.19377209076512639       0.29897773506823111       0.45160097631770801       0.66785468973310236       0.96715445406546929        1.3718618174088824        1.9066983769247288        2.5978391192216548        3.4717492501970462        4.5538789562967299        5.8673616275164795        7.4318642031179509        9.2627126908757411        11.370368962088401        13.760279201300103        16.433063027516287        19.384974981045804        22.608551004619397        26.093350757320643        29.826717672463271        33.794496944302800        37.981671940687399        42.372898178068503        46.952928913499903        51.706936954521005        56.620743748820026        61.680969964267611        66.875122523621386        72.191632268379124        77.619854779059068        83.150044871467856        88.773313245882491        94.481571878519802        100.26747310482118        106.12434598048719        112.04613240898018        118.02732466322340        124.06290526577155        130.14828968557723        136.27927192245707        142.45197274767276        148.66279011913198        154.90835106304797        161.18546408096171        167.49107086934706        173.82219578891824        180.17589103903956        186.54917480276632        192.93895861434299        199.34195868238615        205.75458358730043        212.17278718145516        218.59186984929019        225.00620214747954        231.40882981541310        237.79089388403801        244.14075622461328        250.44264485359179        256.67449798540105        262.80444368309622        268.78492694771063        274.54280984087700        279.96296753251369        284.86346573625445     
 SCALARS v double
 LOOKUP_TABLE default
   0.0000000000000000        0.0000000000000000        0.0000000000000000        0.0000000000000000        0.0000000000000000        0.0000000000000000        0.0000000000000000        0.0000000000000000        0.0000000000000000        0.0000000000000000        0.0000000000000000        0.0000000000000000        0.0000000000000000        0.0000000000000000        0.0000000000000000        0.0000000000000000        0.0000000000000000        0.0000000000000000        0.0000000000000000        0.0000000000000000        0.0000000000000000        0.0000000000000000        0.0000000000000000        0.0000000000000000        0.0000000000000000        0.0000000000000000        0.0000000000000000        0.0000000000000000        0.0000000000000000        0.0000000000000000        0.0000000000000000        0.0000000000000000        0.0000000000000000        0.0000000000000000        0.0000000000000000        0.0000000000000000        0.0000000000000000        0.0000000000000000        0.0000000000000000        0.0000000000000000        0.0000000000000000        0.0000000000000000        0.0000000000000000        0.0000000000000000        0.0000000000000000        0.0000000000000000        0.0000000000000000        0.0000000000000000        0.0000000000000000        0.0000000000000000        0.0000000000000000        0.0000000000000000        0.0000000000000000        0.0000000000000000        0.0000000000000000        0.0000000000000000        0.0000000000000000        0.0000000000000000        0.0000000000000000        0.0000000000000000        0.0000000000000000        0.0000000000000000        0.0000000000000000        0.0000000000000000        0.0000000000000000        0.0000000000000000        0.0000000000000000        0.0000000000000000        0.0000000000000000        0.0000000000000000        0.0000000000000000        0.0000000000000000        0.0000000000000000        0.0000000000000000        0.0000000000000000        0.0000000000000000        0.0000000000000000        0.0000000000000000        0.0000000000000000        0.0000000000000000        0.0000000000000000        0.0000000000000000        0.0000000000000000        0.0000000000000000        0.0000000000000000        0.0000000000000000        0.0000000000000000        0.0000000000000000        0.0000000000000000        0.0000000000000000        0.0000000000000000        0.0000000000000000        0.0000000000000000        0.0000000000000000        0.0000000000000000        0.0000000000000000        0.0000000000000000        0.0000000000000000        0.0000000000000000        0.0000000000000000     
 SCALARS rho double
 LOOKUP_TABLE default
   1.0000000000000000       0.99999999999999978       0.99999999999999911       0.99999999999999678       0.99999999999998979       0.99999999999997025       0.99999999999991440       0.99999999999975853       0.99999999999933287       0.99999999999819345       0.99999999999520062       0.99999999998749012       0.99999999996800959       0.99999999991974842       0.99999999980251231       0.99999999952329688       0.99999999887138002       0.99999999737935685       0.99999999403245143       0.99999998667468115       0.99999997082459491       0.99999993737090109       0.99999986819982778       0.99999972810878224       0.99999945024288706       0.99999891057247903       0.99999788441123272       0.99999597448389310       0.99999249553409952       0.99998629512141390       0.99997548475246856       0.99995705115675060       0.99992631652265485       0.99987622184599734       0.99979642265467084       0.99967221425719843       0.99948334538479111       0.99920283191588677       0.99879593809446754       0.99821953723398749       0.99742207943695316       0.99634436356574341       0.99492122602010891       0.99308412618235076       0.99076445153133941       0.98789722130042557       0.98442477493170977       0.98030001728694371       0.97548886133751689       0.96997164190339202       0.96374343586076061       0.95681337668394939       0.94920316453977827       0.94094503315487155       0.93207944263751086       0.92265273556807903       0.91271493872251952       0.90231783060413617       0.89151333727348814       0.88035227249900716       0.86888340532857167       0.85715281809243893       0.84520350824379009       0.83307518544550674       0.82080421820773852       0.80842368996670166       0.79596353117025986       0.78345070065237477       0.77090939572953188       0.75836127574785850       0.74582568816789252       0.73331988973644380       0.72085925796680794       0.70845749015978532       0.69612678868015998       0.68387803227787114       0.67172093401625643       0.65966418693208850       0.64771559898113407       0.63588221918687060       0.62417045727324949       0.61258619949252269       0.60113492393624002       0.58982181944770073       0.57865191349070944       0.56763021620679288       0.55676189078390848       0.54605246477452019       0.53550810416360006       0.52513598355320279       0.51494480487327488       0.50494554903495026       0.49515259987236510       0.48558547584656897       0.47627157577146334       0.46725064962312329       0.45858223843441848       0.45035818190650795       0.44272327092400277       0.43590631283275016     
 SCALARS z double
 LOOKUP_TABLE default
   1.0000000000000000        1.0000000000000000        1.0000000000000000        1.0000000000000000        1.0000000000000000        1.0000000000000000        1.0000000000000000        1.0000000000000000        1.0000000000000000        1.0000000000000000        1.0000000000000000        1.0000000000000000        1.0000000000000000        1.0000000000000000        1.0000000000000000        1.0000000000000000        1.0000000000000000        1.0000000000000000        1.0000000000000000        1.0000000000000000        1.0000000000000000        1.0000000000000000        1.0000000000000000        1.0000000000000000        1.0000000000000000        1.0000000000000000        1.0000000000000000        1.0000000000000000        1.0000000000000000        1.0000000000000000        1.0000000000000000        1.0000000000000000        1.0000000000000000        1.0000000000000000        1.0000000000000000        1.0000000000000000        1.0000000000000000        1.0000000000000000        1.0000000000000000        1.0000000000000000        1.0000000000000000        1.0000000000000000        1.0000000000000000        1.0000000000000000        1.0000000000000000        1.0000000000000000        1.0000000000000000        1.0000000000000000        1.0000000000000000        1.0000000000000000        1.0000000000000000        1.0000000000000000        1.0000000000000000        1.0000000000000000        1.0000000000000000        1.0000000000000000        1.0000000000000000        1.0000000000000000        1.0000000000000000        1.0000000000000000        1.0000000000000000        1.0000000000000000        1.0000000000000000        1.0000000000000000        1.0000000000000000        1.0000000000000000        1.0000000000000000        1.0000000000000000        1.0000000000000000        1.0000000000000000        1.0000000000000000        1.0000000000000000        1.0000000000000000        1.0000000000000000        1.0000000000000000        1.0000000000000000        1.0000000000000000        1.0000000000000000        1.0000000000000000        1.0000000000000000        1.0000000000000000        1.0000000000000000        1.0000000000000000        1.0000000000000000        1.0000000000000000        1.0000000000000000        1.0000000000000000        1.0000000000000000        1.0000000000000000        1.0000000000000000        1.0000000000000000        1.0000000000000000        1.0000000000000000        1.0000000000000000        1.0000000000000000        1.0000000000000000        1.0000000000000000        1.0000000000000000        1.0000000000000000        1.0000000000000000     
 SCALARS p double
 LOOKUP_TABLE default
   99999.999999999971        99999.999999999942        99999.999999999840        99999.999999999520        99999.999999998574        99999.999999995794        99999.999999987966        99999.999999966138        99999.999999906591        99999.999999747073        99999.999999328080        99999.999998248604        99999.999995521386        99999.999988764786        99999.999972351696        99999.999933261526        99999.999841993180        99999.999633109939        99999.999164543231        99999.998134455411        99999.995915443258        99999.991231926295        99999.981547976757        99999.961935233092        99999.923034018750        99999.847480203636        99999.703817782894        99999.436428494722        99998.949377340352        99998.081325428037        99996.567891909988        99993.987242231146        99989.684545849668        99982.671704917622        99971.500893345292        99954.114390373114        99927.679102111579        99888.421660870124        99831.487923835710        99750.857067860561        99639.342734198930        99488.709382768633        99289.919886852891        99033.511285535569        98710.072903650420        98310.780084840022        97827.923246772509        97255.369862099760        96588.907079754455        95826.432301380002        94967.982953667670        94015.619237738807        92973.190345205279        91846.023359779763        90640.575007968393        89364.081426846140        88024.232712812867        86628.889594452092        85185.850900222693        83702.673565758727        82186.542077003352        80644.181346527839        79081.805700254859        77505.096464455666        75919.201172871923        74328.748326994493        72737.872698800624        71150.247209646535        69569.118363722446        67997.343019452266        66437.424938318407        64891.550066658943        63361.619899799101        61849.282570366675        60355.961514469549        58882.881719272475        57431.093659447106        56001.495101370208        54594.851003889678        53211.811782285826        51852.930235977699        50518.677478573074        49209.458259845254        47925.626144181631        46667.499124386377        45435.376426557865        44229.557537586959        43050.364921159126        41898.172580685983        40773.443749176426        39676.782835660793        38609.009868979221        37571.271020845525        36565.208137346468        35593.226812863206        34658.932168855681        33767.853291629108        32928.660302522003        32155.172913984505        31469.379227177717     
 SCALARS c double
 LOOKUP_TABLE default