# vtk DataFile Version 2.0
 Flow
 ASCII
 DATASET STRUCTURED_GRID
 FIELD FieldData 1
 TIME 1 1 double
   3.1000000000000000E-004
 DIMENSIONS         401           2           1
 POINTS         802 double
   0.0000000000000000        0.0000000000000000        0.0000000000000000     
   2.5000000000000001E-003   0.0000000000000000        0.0000000000000000     
   5.0000000000000001E-003   0.0000000000000000        0.0000000000000000     
   7.4999999999999997E-003   0.0000000000000000        0.0000000000000000     
   1.0000000000000000E-002   0.0000000000000000        0.0000000000000000     
   1.2500000000000001E-002   0.0000000000000000        0.0000000000000000     
   1.4999999999999999E-002   0.0000000000000000        0.0000000000000000     
   1.7500000000000002E-002   0.0000000000000000        0.0000000000000000     
   2.0000000000000000E-002   0.0000000000000000        0.0000000000000000     
   2.2499999999999999E-002   0.0000000000000000        0.0000000000000000     
   2.5000000000000001E-002   0.0000000000000000        0.0000000000000000     
   2.7500000000000000E-002   0.0000000000000000        0.0000000000000000     
   2.9999999999999999E-002   0.0000000000000000        0.0000000000000000     
   3.2500000000000001E-002   0.0000000000000000        0.0000000000000000     
   3.5000000000000003E-002   0.0000000000000000        0.0000000000000000     
   3.7499999999999999E-002   0.0000000000000000        0.0000000000000000     
   4.0000000000000001E-002   0.0000000000000000        0.0000000000000000     
   4.2500000000000003E-002   0.0000000000000000        0.0000000000000000     
   4.4999999999999998E-002   0.0000000000000000        0.0000000000000000     
   4.7500000000000001E-002   0.0000000000000000        0.0000000000000000     
   5.0000000000000003E-002   0.0000000000000000        0.0000000000000000     
   5.2499999999999998E-002   0.0000000000000000        0.0000000000000000     
   5.5000000000000000E-002   0.0000000000000000        0.0000000000000000     
   5.7500000000000002E-002   0.0000000000000000        0.0000000000000000     
   5.9999999999999998E-002   0.0000000000000000        0.0000000000000000     
   6.2500000000000000E-002   0.0000000000000000        0.0000000000000000     
   6.5000000000000002E-002   0.0000000000000000        0.0000000000000000     
   6.7500000000000004E-002   0.0000000000000000        0.0000000000000000     
   7.0000000000000007E-002   0.0000000000000000        0.0000000000000000     
   7.2499999999999995E-002   0.0000000000000000        0.0000000000000000     
   7.4999999999999997E-002   0.0000000000000000        0.0000000000000000     
   7.7499999999999999E-002   0.0000000000000000        0.0000000000000000     
   8.0000000000000002E-002   0.0000000000000000        0.0000000000000000     
   8.2500000000000004E-002   0.0000000000000000        0.0000000000000000     
   8.5000000000000006E-002   0.0000000000000000        0.0000000000000000     
   8.7500000000000008E-002   0.0000000000000000        0.0000000000000000     
   8.9999999999999997E-002   0.0000000000000000        0.0000000000000000     
   9.2499999999999999E-002   0.0000000000000000        0.0000000000000000     
   9.5000000000000001E-002   0.0000000000000000        0.0000000000000000     
   9.7500000000000003E-002   0.0000000000000000        0.0000000000000000     
  0.10000000000000001        0.0000000000000000        0.0000000000000000     
  0.10250000000000001        0.0000000000000000        0.0000000000000000     
  0.10500000000000000        0.0000000000000000        0.0000000000000000     
  0.10750000000000000        0.0000000000000000        0.0000000000000000     
  0.11000000000000000        0.0000000000000000        0.0000000000000000     
  0.11250000000000000        0.0000000000000000        0.0000000000000000     
  0.11500000000000000        0.0000000000000000        0.0000000000000000     
  0.11750000000000001        0.0000000000000000        0.0000000000000000     
  0.12000000000000000        0.0000000000000000        0.0000000000000000     
  0.12250000000000000        0.0000000000000000        0.0000000000000000     
  0.12500000000000000        0.0000000000000000        0.0000000000000000     
  0.12750000000000000        0.0000000000000000        0.0000000000000000     
  0.13000000000000000        0.0000000000000000        0.0000000000000000     
  0.13250000000000001        0.0000000000000000        0.0000000000000000     
  0.13500000000000001        0.0000000000000000        0.0000000000000000     
  0.13750000000000001        0.0000000000000000        0.0000000000000000     
  0.14000000000000001        0.0000000000000000        0.0000000000000000     
  0.14250000000000002        0.0000000000000000        0.0000000000000000     
  0.14499999999999999        0.0000000000000000        0.0000000000000000     
  0.14749999999999999        0.0000000000000000        0.0000000000000000     
  0.14999999999999999        0.0000000000000000        0.0000000000000000     
  0.15250000000000000        0.0000000000000000        0.0000000000000000     
  0.15500000000000000        0.0000000000000000        0.0000000000000000     
  0.15750000000000000        0.0000000000000000        0.0000000000000000     
  0.16000000000000000        0.0000000000000000        0.0000000000000000     
  0.16250000000000001        0.0000000000000000        0.0000000000000000     
  0.16500000000000001        0.0000000000000000        0.0000000000000000     
  0.16750000000000001        0.0000000000000000        0.0000000000000000     
  0.17000000000000001        0.0000000000000000        0.0000000000000000     
  0.17250000000000001        0.0000000000000000        0.0000000000000000     
  0.17500000000000002        0.0000000000000000        0.0000000000000000     
  0.17749999999999999        0.0000000000000000        0.0000000000000000     
  0.17999999999999999        0.0000000000000000        0.0000000000000000     
  0.18250000000000000        0.0000000000000000        0.0000000000000000     
  0.18500000000000000        0.0000000000000000        0.0000000000000000     
  0.18750000000000000        0.0000000000000000        0.0000000000000000     
  0.19000000000000000        0.0000000000000000        0.0000000000000000     
  0.19250000000000000        0.0000000000000000        0.0000000000000000     
  0.19500000000000001        0.0000000000000000        0.0000000000000000     
  0.19750000000000001        0.0000000000000000        0.0000000000000000     
  0.20000000000000001        0.0000000000000000        0.0000000000000000     
  0.20250000000000001        0.0000000000000000        0.0000000000000000     
  0.20500000000000002        0.0000000000000000        0.0000000000000000     
  0.20750000000000002        0.0000000000000000        0.0000000000000000     
  0.20999999999999999        0.0000000000000000        0.0000000000000000     
  0.21249999999999999        0.0000000000000000        0.0000000000000000     
  0.21500000000000000        0.0000000000000000        0.0000000000000000     
  0.21750000000000000        0.0000000000000000        0.0000000000000000     
  0.22000000000000000        0.0000000000000000        0.0000000000000000     
  0.22250000000000000        0.0000000000000000        0.0000000000000000     
  0.22500000000000001        0.0000000000000000        0.0000000000000000     
  0.22750000000000001        0.0000000000000000        0.0000000000000000     
  0.23000000000000001        0.0000000000000000        0.0000000000000000     
  0.23250000000000001        0.0000000000000000        0.0000000000000000     
  0.23500000000000001        0.0000000000000000        0.0000000000000000     
  0.23750000000000002        0.0000000000000000        0.0000000000000000     
  0.23999999999999999        0.0000000000000000        0.0000000000000000     
  0.24249999999999999        0.0000000000000000        0.0000000000000000     
  0.24500000000000000        0.0000000000000000        0.0000000000000000     
  0.24750000000000000        0.0000000000000000        0.0000000000000000     
  0.25000000000000000        0.0000000000000000        0.0000000000000000     
  0.25250000000000000        0.0000000000000000        0.0000000000000000     
  0.25500000000000000        0.0000000000000000        0.0000000000000000     
  0.25750000000000001        0.0000000000000000        0.0000000000000000     
  0.26000000000000001        0.0000000000000000        0.0000000000000000     
  0.26250000000000001        0.0000000000000000        0.0000000000000000     
  0.26500000000000001        0.0000000000000000        0.0000000000000000     
  0.26750000000000002        0.0000000000000000        0.0000000000000000     
  0.27000000000000002        0.0000000000000000        0.0000000000000000     
  0.27250000000000002        0.0000000000000000        0.0000000000000000     
  0.27500000000000002        0.0000000000000000        0.0000000000000000     
  0.27750000000000002        0.0000000000000000        0.0000000000000000     
  0.28000000000000003        0.0000000000000000        0.0000000000000000     
  0.28250000000000003        0.0000000000000000        0.0000000000000000     
  0.28500000000000003        0.0000000000000000        0.0000000000000000     
  0.28750000000000003        0.0000000000000000        0.0000000000000000     
  0.28999999999999998        0.0000000000000000        0.0000000000000000     
  0.29249999999999998        0.0000000000000000        0.0000000000000000     
  0.29499999999999998        0.0000000000000000        0.0000000000000000     
  0.29749999999999999        0.0000000000000000        0.0000000000000000     
  0.29999999999999999        0.0000000000000000        0.0000000000000000     
  0.30249999999999999        0.0000000000000000        0.0000000000000000     
  0.30499999999999999        0.0000000000000000        0.0000000000000000     
  0.30750000000000000        0.0000000000000000        0.0000000000000000     
[...]
 CELL_DATA         400
 SCALARS u double
 LOOKUP_TABLE default
   2.5545911608692343E-162   3.3001706595738302E-160   3.9732549450081483E-158   4.4502613336276968E-156   4.6596247165475383E-154   4.5810508991354491E-152   4.2461954628326993E-150   3.7248215841779043E-148   3.1034045872510421E-146   2.4642466001741431E-144   1.8709508795387861E-142   1.3624153869393008E-140   9.5419885673230089E-139   6.4429851795762139E-137   4.2020894316155181E-135   2.6505325324124794E-133   1.6181151915207844E-131   9.5635148312321579E-130   5.4720941545372084E-128   3.0308083742126376E-126   1.6247169515567821E-124   8.4294537608107619E-123   4.2332217080310659E-121   2.0582544595346995E-119   9.6926129910853602E-118   4.4227714848167263E-116   1.9565562518616171E-114   8.3965299403395013E-113   3.4979894098200012E-111   1.4157619100222524E-109   5.5718572814729018E-108   2.1343888703778976E-106   7.9665284020526290E-105   2.9004330487159409E-103   1.0311705536966121E-101   3.5836734477197283E-100   1.2186474699527551E-098   4.0584264871311076E-097   1.3246553659212630E-095   4.2404962537425724E-094   1.3322481917324638E-092   4.1105012458580719E-091   1.2463640971689025E-089   3.7166311465390639E-088   1.0907477693743090E-086   3.1525431645890204E-085   8.9782410499264876E-084   2.5202995702513321E-082   6.9737073835015663E-081   1.9016345568028055E-079   5.1079578065108625E-078   1.3507566028856842E-076   3.5145674326659816E-075   8.9938524572291677E-074   2.2631781903572980E-072   5.6007902706588344E-071   1.3637972445795152E-069   3.2702812694840389E-068   7.7313573017008932E-067   1.8045416769638807E-065   4.1646878512076835E-064   9.5183186762126044E-063   2.1570761328163037E-061   4.8513929851698448E-060   1.0830179455920266E-058   2.3982683726679852E-057   5.2609911895183732E-056   1.1412743784970416E-054   2.4442531655049072E-053   5.1623325788083291E-052   1.0747951797456802E-050   2.2064714108742893E-049   4.4685628801220479E-048   8.9286471482015207E-047   1.7589884162798663E-045   3.4114199000597677E-044   6.4997317197694150E-043   1.2140584743750631E-041   2.2199034329541061E-040   3.9722582117872421E-039   6.9636171259236734E-038   1.1990838877943274E-036   2.0356000410658249E-035   3.4208714745133235E-034   5.7107381624851550E-033   9.4897071312707700E-032   1.5703844152515635E-030   2.5860580901272290E-029   4.2336936123749179E-028   6.8865008358257941E-027   1.1132962852837041E-025   1.7901247048353886E-024   2.8678101084383214E-023   4.5787030157227397E-022   7.3103247561044951E-021   1.1614476724679376E-019   1.8621844528372018E-018   2.9168681037431191E-017   4.8276807577056910E-016   6.9788089093903041E-015   6.1056393057358979E-014   1.4437117236239034E-013   4.3459981658702875E-013   1.2781668316504354E-012   3.8587286693081505E-012   1.1306123446139486E-011   3.2351375374383266E-011   9.0914500328935465E-011   2.5081323304186685E-010   6.7906429686498636E-010   1.8038864982192501E-009   4.7014633857414013E-009   1.2021600419285039E-008   3.0155463161394531E-008   7.4202492708056086E-008   1.7909839416770634E-007   4.2399060202009860E-007   9.8442105283167600E-007   2.2414706130508005E-006   5.0047039454722953E-006   1.0956729743000607E-005   2.3518143372425512E-005   4.9488606805420742E-005   1.0208134196613423E-004   2.0638757534093544E-004   4.0895178517981278E-004   7.9408262508178168E-004   1.5108325719571400E-003   2.8162722779569616E-003   5.1426864516664400E-003   9.1983798888264929E-003   1.6113407582733785E-002   2.7641923644714350E-002   4.6430870061404575E-002   7.6359128750810065E-002  0.12294094968231419       0.19377209076512639       0.29897773506823111       0.45160097631770801       0.66785468973310236       0.96715445406546929        1.3718618174088824        1.9066983769247288        2.5978391192216548        3.4717492501970462        4.5538789562967299        5.8673616275164795        7.4318642031179509        9.2627126908757411        11.370368962088401        13.760279201300103        16.433063027516287        19.384974981045804        22.608551004619397        26.093350757320643        29.826717672463271        33.794496944302800        37.981671940687399        42.372898178068503        46.952928913499903        51.706936954521005        56.620743748820026        61.680969964267611        66.875122523621386        72.191632268379124        77.619854779059068        83.150044871467856        88.773313245882491        94.481571878519802        100.26747310482118        106.12434598048719        112.04613240898018        118.02732466322340        124.06290526577155        130.14828968557723        136.27927192245707        142.45197274767276        148.66279011913198        154.90835106304797        161.18546408096171        167.49107086934706        173.82219578891824        180.17589103903956        186.54917480276632        192.93895861434299        199.34195868238615        205.75458358730043        212.17278718145516        218.59186984929019        225.00620214747954        231.40882981541310        237.79089388403801        244.14075622461328        250.44264485359179        256.67449798540105        262.80444368309622        268.78492694771063        274.54280984087700        279.96296753251369        284.86346573625445        288.96932337645774        291.93039473539488        293.50833923260768        293.95628773735223        293.95568892709844        293.88996225462574        293.82954899903615        293.77833782582843        293.73428109344769        293.69578952818944        293.66181520722103        293.63162749228087        293.60468505842863        293.58056811910541        293.55893673391313        293.53950526503814        293.52202952184757        293.50629996291394        293.49213539384556        293.47937666179860        293.46788241810202        293.45752739302139        293.44820140733776        293.43980755748260        293.43225976388555        293.42548079418094        293.41940127089140        293.41395917582770        293.40909912067940        293.40477123924967        293.40093015029385        293.39753439461674        293.39454630415497        293.39193199262104        293.38966125411810        293.38770739608447        293.38604714534637        293.38466069333435        293.38353182109432        293.38264799680610        293.38200038551724        293.38158378999850        293.38139658972904        293.38144074467067        293.38172189989552        293.38224958410984        293.38303744123425        293.38410335361652        293.38546915224975        293.38715922602893        293.38919647261588        293.39159217300522        293.39432248107141        293.39727612771105        293.40014121965163        293.40216472398760        293.40164827238203        293.39490159321031        293.37408587512289        293.32279371655011        293.20702908592762        292.95687409542728        292.42941607899570        291.33442062423296        289.08781880191407        284.53313275024817        275.45374334203541        257.88874456127979        225.84706914466389        173.94246755104859        107.21865745039084        48.810155210828412        16.896305957671242        5.0149278316241119        1.4023183669091885       0.38476256863845509       0.10495324160399276        2.8566441801528408E-002   7.7654971946798119E-003   2.1085629888113397E-003   5.7181392930501348E-004   1.5483894585786674E-004   4.1854863137757234E-005   1.1290546981539256E-005   3.0383037328770935E-006   8.1530323240994640E-007   2.1806438655247106E-007   5.8105307968675910E-008   1.5416426296002913E-008   4.0704864371646250E-009   1.0689299277510093E-009   2.7899809430480392E-010   7.2348136513819068E-011   1.8610215715306708E-011   4.7373279672718293E-012   1.2070461385295900E-012   2.9257365203961370E-013   7.0407603454813762E-014   6.5530209379551818E-015   3.7880684886716785E-016   1.8997650861774732E-017   1.0058630793507291E-018   5.1759218187447290E-020   2.6911237207047650E-021   1.3927097818665408E-022   7.2202595479731244E-024   3.7396562097050322E-025   1.9373781681763398E-026   1.0033681420716909E-027   5.1953519301046621E-029   2.6887802469320900E-030   1.3904863345658987E-031   7.1818706151399077E-033   3.7022780459445119E-034   1.9029861612578889E-035   9.7403665426745674E-037   4.9566059439029225E-038   2.5028679208139520E-039   1.2515102692903899E-040   6.1840032900442129E-042   3.0139516181013717E-043   1.4469043927196428E-044   6.8378197299857948E-046   3.1822452442297748E-047   1.4605452928254841E-048   6.6265701258142235E-050   2.9804940998580878E-051   1.3324268675338579E-052   5.9297950975473880E-054   2.6271465526961367E-055   1.1568924873266329E-056   5.0501555053363453E-058   2.1787936134025508E-059   9.2659940126797474E-061   3.8775518162041308E-062   1.5953242296417599E-063   6.4528745040816845E-065   2.5673603629907775E-066   1.0054467707698687E-067   3.8784401517831415E-069   1.4742579564117370E-070   5.5230811582108374E-072   2.0391422426187853E-073   7.4176203211732836E-075   2.6575835037987878E-076   9.3746906147879563E-078   3.2547823400245641E-079   1.1118478878232896E-080   3.7361083396831808E-082   1.2347606143940538E-083   4.0136616328844447E-085   1.2834620556481627E-086   4.0391401980054214E-088   1.2517412203153877E-089   3.8225988542347752E-091   1.1510941237244331E-092   3.4197121780902009E-094   1.0025014308741025E-095   2.8994620505024156E-097   8.2684000917685736E-099   2.3225132149936150E-100   6.4172602303377045E-102   1.7415130150124924E-103   4.6342508159327181E-105   1.2072658939038115E-106   3.0742065631066779E-108   7.6414238683476174E-110   1.8519022514335088E-111   4.3717449498248630E-113   1.0045713988161831E-114   2.2459481000961826E-116   4.8844839232020219E-118   1.0333265505244364E-119   2.1268177800857248E-121   4.2600744279709414E-123   8.3067255869985793E-125   1.5771394072439734E-126   2.9158671243498483E-128   5.2485938068541972E-130   9.1934320778269046E-132   1.5656663662531254E-133   2.5892659839203820E-135   4.1517089766236726E-137   6.4420949764349328E-139   9.6522890621738578E-141   1.3930999563304068E-142   1.9317020935138744E-144   2.5662183430581167E-146   3.2567879200486291E-148   3.9369508659620473E-150   4.5201589956386792E-152   4.9155003604700452E-154   5.0498616400999825E-156   4.8896310479706050E-158   4.4532665572219275E-160   3.8085233661181214E-162   3.0543771711972987E-164   2.2945333084985009E-166   1.6128749536637309E-168   1.0657636599299037E-170
 SCALARS v double
 LOOKUP_TABLE default