# vtk DataFile Version 2.0
 Flow
 ASCII
 DATASET STRUCTURED_GRID
 FIELD FieldData 1
 TIME 1 1 double
   3.1000000000000000E-004
 DIMENSIONS         101           2           1
 POINTS         202 double
  0.50000000000000000        0.0000000000000000        0.0000000000000000     
  0.50250000000000006        0.0000000000000000        0.0000000000000000     
  0.50500000000000000        0.0000000000000000        0.0000000000000000     
  0.50750000000000006        0.0000000000000000        0.0000000000000000     
  0.51000000000000001        0.0000000000000000        0.0000000000000000     
  0.51249999999999996        0.0000000000000000        0.0000000000000000     
  0.51500000000000001        0.0000000000000000        0.0000000000000000     
  0.51749999999999996        0.0000000000000000        0.0000000000000000     
  0.52000000000000002        0.0000000000000000        0.0000000000000000     
  0.52249999999999996        0.0000000000000000        0.0000000000000000     
  0.52500000000000002        0.0000000000000000        0.0000000000000000     
  0.52749999999999997        0.0000000000000000        0.0000000000000000     
  0.53000000000000003        0.0000000000000000        0.0000000000000000     
  0.53249999999999997        0.0000000000000000        0.0000000000000000     
  0.53500000000000003        0.0000000000000000        0.0000000000000000     
  0.53749999999999998        0.0000000000000000        0.0000000000000000     
  0.54000000000000004        0.0000000000000000        0.0000000000000000     
  0.54249999999999998        0.0000000000000000        0.0000000000000000     
  0.54500000000000004        0.0000000000000000        0.0000000000000000     
  0.54749999999999999        0.0000000000000000        0.0000000000000000     
  0.55000000000000004        0.0000000000000000        0.0000000000000000     
  0.55249999999999999        0.0000000000000000        0.0000000000000000     
  0.55500000000000005        0.0000000000000000        0.0000000000000000     
  0.55750000000000000        0.0000000000000000        0.0000000000000000     
  0.56000000000000005        0.0000000000000000        0.0000000000000000     
  0.56250000000000000        0.0000000000000000        0.0000000000000000     
  0.56500000000000006        0.0000000000000000        0.0000000000000000     
  0.56750000000000000        0.0000000000000000        0.0000000000000000     
  0.57000000000000006        0.0000000000000000        0.0000000000000000     
  0.57250000000000001        0.0000000000000000        0.0000000000000000     
  0.57500000000000007        0.0000000000000000        0.0000000000000000     
  0.57750000000000001        0.0000000000000000        0.0000000000000000     
  0.57999999999999996        0.0000000000000000        0.0000000000000000     
  0.58250000000000002        0.0000000000000000        0.0000000000000000     
  0.58499999999999996        0.0000000000000000        0.0000000000000000     
  0.58750000000000002        0.0000000000000000        0.0000000000000000     
  0.58999999999999997        0.0000000000000000        0.0000000000000000     
  0.59250000000000003        0.0000000000000000        0.0000000000000000     
  0.59499999999999997        0.0000000000000000        0.0000000000000000     
  0.59750000000000003        0.0000000000000000        0.0000000000000000     
  0.59999999999999998        0.0000000000000000        0.0000000000000000     
  0.60250000000000004        0.0000000000000000        0.0000000000000000     
  0.60499999999999998        0.0000000000000000        0.0000000000000000     
  0.60750000000000004        0.0000000000000000        0.0000000000000000     
  0.60999999999999999        0.0000000000000000        0.0000000000000000     
  0.61250000000000004        0.0000000000000000        0.0000000000000000     
  0.61499999999999999        0.0000000000000000        0.0000000000000000     
  0.61750000000000005        0.0000000000000000        0.0000000000000000     
  0.62000000000000000        0.0000000000000000        0.0000000000000000     
  0.62250000000000005        0.0000000000000000        0.0000000000000000     
  0.62500000000000000        0.0000000000000000        0.0000000000000000     
  0.62750000000000006        0.0000000000000000        0.0000000000000000     
  0.63000000000000000        0.0000000000000000        0.0000000000000000     
  0.63250000000000006        0.0000000000000000        0.0000000000000000     
  0.63500000000000001        0.0000000000000000        0.0000000000000000     
  0.63750000000000007        0.0000000000000000        0.0000000000000000     
  0.64000000000000001        0.0000000000000000        0.0000000000000000     
  0.64249999999999996        0.0000000000000000        0.0000000000000000     
  0.64500000000000002        0.0000000000000000        0.0000000000000000     
  0.64749999999999996        0.0000000000000000        0.0000000000000000     
  0.65000000000000002        0.0000000000000000        0.0000000000000000     
  0.65249999999999997        0.0000000000000000        0.0000000000000000     
  0.65500000000000003        0.0000000000000000        0.0000000000000000     
  0.65749999999999997        0.0000000000000000        0.0000000000000000     
  0.66000000000000003        0.0000000000000000        0.0000000000000000     
  0.66249999999999998        0.0000000000000000        0.0000000000000000     
  0.66500000000000004        0.0000000000000000        0.0000000000000000     
  0.66749999999999998        0.0000000000000000        0.0000000000000000     
  0.67000000000000004        0.0000000000000000        0.0000000000000000     
  0.67249999999999999        0.0000000000000000        0.0000000000000000     
  0.67500000000000004        0.0000000000000000        0.0000000000000000     
  0.67749999999999999        0.0000000000000000        0.0000000000000000     
  0.68000000000000005        0.0000000000000000        0.0000000000000000     
  0.68250000000000000        0.0000000000000000        0.0000000000000000     
  0.68500000000000005        0.0000000000000000        0.0000000000000000     
  0.68750000000000000        0.0000000000000000        0.0000000000000000     
  0.69000000000000006        0.0000000000000000        0.0000000000000000     
  0.69250000000000000        0.0000000000000000        0.0000000000000000     
  0.69500000000000006        0.0000000000000000        0.0000000000000000     
  0.69750000000000001        0.0000000000000000        0.0000000000000000     
  0.70000000000000007        0.0000000000000000        0.0000000000000000     
  0.70250000000000001        0.0000000000000000        0.0000000000000000     
  0.70499999999999996        0.0000000000000000        0.0000000000000000     
  0.70750000000000002        0.0000000000000000        0.0000000000000000     
  0.70999999999999996        0.0000000000000000        0.0000000000000000     
  0.71250000000000002        0.0000000000000000        0.0000000000000000     
  0.71499999999999997        0.0000000000000000        0.0000000000000000     
  0.71750000000000003        0.0000000000000000        0.0000000000000000     
  0.71999999999999997        0.0000000000000000        0.0000000000000000     
  0.72250000000000003        0.0000000000000000        0.0000000000000000     
  0.72499999999999998        0.0000000000000000        0.0000000000000000     
  0.72750000000000004        0.0000000000000000        0.0000000000000000     
  0.72999999999999998        0.0000000000000000        0.0000000000000000     
  0.73250000000000004        0.0000000000000000        0.0000000000000000     
  0.73499999999999999        0.0000000000000000        0.0000000000000000     
  0.73750000000000004        0.0000000000000000        0.0000000000000000     
  0.73999999999999999        0.0000000000000000        0.0000000000000000     
  0.74250000000000005        0.0000000000000000        0.0000000000000000     
  0.74500000000000000        0.0000000000000000        0.0000000000000000     
  0.74750000000000005        0.0000000000000000        0.0000000000000000     
  0.75000000000000000        0.0000000000000000        0.0000000000000000     
  0.50000000000000000        1.0000000000000000        0.0000000000000000     
  0.50250000000000006        1.0000000000000000        0.0000000000000000     
  0.50500000000000000        1.0000000000000000        0.0000000000000000     
  0.50750000000000006        1.0000000000000000        0.0000000000000000     
  0.51000000000000001        1.0000000000000000        0.0000000000000000     
  0.51249999999999996        1.0000000000000000        0.0000000000000000     
  0.51500000000000001        1.0000000000000000        0.0000000000000000     
  0.51749999999999996        1.0000000000000000        0.0000000000000000     
  0.52000000000000002        1.0000000000000000        0.0000000000000000     
  0.52249999999999996        1.0000000000000000        0.0000000000000000     
  0.52500000000000002        1.0000000000000000        0.0000000000000000     
  0.52749999999999997        1.0000000000000000        0.0000000000000000     
  0.53000000000000003        1.0000000000000000        0.0000000000000000     
  0.53249999999999997        1.0000000000000000        0.0000000000000000     
  0.53500000000000003        1.0000000000000000        0.0000000000000000     
  0.53749999999999998        1.0000000000000000        0.0000000000000000     
  0.54000000000000004        1.0000000000000000        0.0000000000000000     
  0.54249999999999998        1.0000000000000000        0.0000000000000000     
  0.54500000000000004        1.0000000000000000        0.0000000000000000     
  0.54749999999999999        1.0000000000000000        0.0000000000000000     
  0.55000000000000004        1.0000000000000000        0.0000000000000000     
  0.55249999999999999        1.0000000000000000        0.0000000000000000     
  0.55500000000000005        1.0000000000000000        0.0000000000000000     
  0.55750000000000000        1.0000000000000000        0.0000000000000000     
  0.56000000000000005        1.0000000000000000        0.0000000000000000     
  0.56250000000000000        1.0000000000000000        0.0000000000000000     
  0.56500000000000006        1.0000000000000000        0.0000000000000000     
  0.56750000000000000        1.0000000000000000        0.0000000000000000     
  0.57000000000000006        1.0000000000000000        0.0000000000000000     
  0.57250000000000001        1.0000000000000000        0.0000000000000000     
  0.57500000000000007        1.0000000000000000        0.0000000000000000     
  0.57750000000000001        1.0000000000000000        0.0000000000000000     
  0.57999999999999996        1.0000000000000000        0.0000000000000000     
  0.58250000000000002        1.0000000000000000        0.0000000000000000     
  0.58499999999999996        1.0000000000000000        0.0000000000000000     
  0.58750000000000002        1.0000000000000000        0.0000000000000000     
  0.58999999999999997        1.0000000000000000        0.0000000000000000     
  0.59250000000000003        1.0000000000000000        0.0000000000000000     
  0.59499999999999997        1.0000000000000000        0.0000000000000000     
  0.59750000000000003        1.0000000000000000        0.0000000000000000     
  0.59999999999999998        1.0000000000000000        0.0000000000000000     
  0.60250000000000004        1.0000000000000000        0.0000000000000000     
  0.60499999999999998        1.0000000000000000        0.0000000000000000     
  0.60750000000000004        1.0000000000000000        0.0000000000000000     
  0.60999999999999999        1.0000000000000000        0.0000000000000000     
  0.61250000000000004        1.0000000000000000        0.0000000000000000     
  0.61499999999999999        1.0000000000000000        0.0000000000000000     
  0.61750000000000005        1.0000000000000000        0.0000000000000000     
  0.62000000000000000        1.0000000000000000        0.0000000000000000     
  0.62250000000000005        1.0000000000000000        0.0000000000000000     
  0.62500000000000000        1.0000000000000000        0.0000000000000000     
  0.62750000000000006        1.0000000000000000        0.0000000000000000     
  0.63000000000000000        1.0000000000000000        0.0000000000000000     
  0.63250000000000006        1.0000000000000000        0.0000000000000000     
  0.63500000000000001        1.0000000000000000        0.0000000000000000     
  0.63750000000000007        1.0000000000000000        0.0000000000000000     
  0.64000000000000001        1.0000000000000000        0.0000000000000000     
  0.64249999999999996        1.0000000000000000        0.0000000000000000     
  0.64500000000000002        1.0000000000000000        0.0000000000000000     
  0.64749999999999996        1.0000000000000000        0.0000000000000000     
  0.65000000000000002        1.0000000000000000        0.0000000000000000     
  0.65249999999999997        1.0000000000000000        0.0000000000000000     
  0.65500000000000003        1.0000000000000000        0.0000000000000000     
  0.65749999999999997        1.0000000000000000        0.0000000000000000     
  0.66000000000000003        1.0000000000000000        0.0000000000000000     
  0.66249999999999998        1.0000000000000000        0.0000000000000000     
  0.66500000000000004        1.0000000000000000        0.0000000000000000     
  0.66749999999999998        1.0000000000000000        0.0000000000000000     
  0.67000000000000004        1.0000000000000000        0.0000000000000000     
  0.67249999999999999        1.0000000000000000        0.0000000000000000     
  0.67500000000000004        1.0000000000000000        0.0000000000000000     
  0.67749999999999999        1.0000000000000000        0.0000000000000000     
  0.68000000000000005        1.0000000000000000        0.0000000000000000     
  0.68250000000000000        1.0000000000000000        0.0000000000000000     
  0.68500000000000005        1.0000000000000000        0.0000000000000000     
  0.68750000000000000        1.0000000000000000        0.0000000000000000     
  0.69000000000000006        1.0000000000000000        0.0000000000000000     
  0.69250000000000000        1.0000000000000000        0.0000000000000000     
  0.69500000000000006        1.0000000000000000        0.0000000000000000     
  0.69750000000000001        1.0000000000000000        0.0000000000000000     
  0.70000000000000007        1.0000000000000000        0.0000000000000000     
  0.70250000000000001        1.0000000000000000        0.0000000000000000     
  0.70499999999999996        1.0000000000000000        0.0000000000000000     
  0.70750000000000002        1.0000000000000000        0.0000000000000000     
  0.70999999999999996        1.0000000000000000        0.0000000000000000     
  0.71250000000000002        1.0000000000000000        0.0000000000000000     
  0.71499999999999997        1.0000000000000000        0.0000000000000000     
  0.71750000000000003        1.0000000000000000        0.0000000000000000     
  0.71999999999999997        1.0000000000000000        0.0000000000000000     
  0.72250000000000003        1.0000000000000000        0.0000000000000000     
  0.72499999999999998        1.0000000000000000        0.0000000000000000     
  0.72750000000000004        1.0000000000000000        0.0000000000000000     
  0.72999999999999998        1.0000000000000000        0.0000000000000000     
  0.73250000000000004        1.0000000000000000        0.0000000000000000     
  0.73499999999999999        1.0000000000000000        0.0000000000000000     
  0.73750000000000004        1.0000000000000000        0.0000000000000000     
  0.73999999999999999        1.0000000000000000        0.0000000000000000     
  0.74250000000000005        1.0000000000000000        0.0000000000000000     
  0.74500000000000000        1.0000000000000000        0.0000000000000000     
  0.74750000000000005        1.0000000000000000        0.0000000000000000     
  0.75000000000000000        1.0000000000000000        0.0000000000000000     
 CELL_DATA         100
 SCALARS u double
 LOOKUP_TABLE default
   288.96932337645774        291.93039473539488        293.50833923260768        293.95628773735223        293.95568892709844        293.88996225462574        293.82954899903615        293.77833782582843        293.73428109344769        293.69578952818944        293.66181520722103        293.63162749228087        293.60468505842863        293.58056811910541        293.55893673391313        293.53950526503814        293.52202952184757        293.50629996291394        293.49213539384556        293.47937666179860        293.46788241810202        293.45752739302139        293.44820140733776        293.43980755748260        293.43225976388555        293.42548079418094        293.41940127089140        293.41395917582770        293.40909912067940        293.40477123924967        293.40093015029385        293.39753439461674        293.39454630415497        293.39193199262104        293.38966125411810        293.38770739608447        293.38604714534637        293.38466069333435        293.38353182109432        293.38264799680610        293.38200038551724        293.38158378999850        293.38139658972904        293.38144074467067        293.38172189989552        293.38224958410984        293.38303744123425        293.38410335361652        293.38546915224975        293.38715922602893        293.38919647261588        293.39159217300522        293.39432248107141        293.39727612771105        293.40014121965163        293.40216472398760        293.40164827238203        293.39490159321031        293.37408587512289        293.32279371655011        293.20702908592762        292.95687409542728        292.42941607899570        291.33442062423296        289.08781880191407        284.53313275024817        275.45374334203541        257.88874456127979        225.84706914466389        173.94246755104859        107.21865745039084        48.810155210828412        16.896305957671242        5.0149278316241119        1.4023183669091885       0.38476256863845509       0.10495324160399276        2.8566441801528408E-002   7.7654971946798119E-003   2.1085629888113397E-003   5.7181392930501348E-004   1.5483894585786674E-004   4.1854863137757234E-005   1.1290546981539256E-005   3.0383037328770935E-006   8.1530323240994640E-007   2.1806438655247106E-007   5.8105307968675910E-008   1.5416426296002913E-008   4.0704864371646250E-009   1.0689299277510093E-009   2.7899809430480392E-010   7.2348136513819068E-011   1.8610215715306708E-011   4.7373279672718293E-012   1.2070461385295900E-012   2.9257365203961370E-013   7.0407603454813762E-014   6.5530209379551818E-015   3.7880684886716785E-016
 SCALARS v double
 LOOKUP_TABLE default
   0.0000000000000000        0.0000000000000000        0.0000000000000000        0.0000000000000000        0.0000000000000000        0.0000000000000000        0.0000000000000000        0.0000000000000000        0.0000000000000000        0.0000000000000000        0.0000000000000000        0.0000000000000000        0.0000000000000000        0.0000000000000000        0.0000000000000000        0.0000000000000000        0.0000000000000000        0.0000000000000000        0.0000000000000000        0.0000000000000000        0.0000000000000000        0.0000000000000000        0.0000000000000000        0.0000000000000000        0.0000000000000000        0.0000000000000000        0.0000000000000000        0.0000000000000000        0.0000000000000000        0.0000000000000000        0.0000000000000000        0.0000000000000000        0.0000000000000000        0.0000000000000000        0.0000000000000000        0.0000000000000000        0.0000000000000000        0.0000000000000000        0.0000000000000000        0.0000000000000000        0.0000000000000000        0.0000000000000000        0.0000000000000000        0.0000000000000000        0.0000000000000000        0.0000000000000000        0.0000000000000000        0.0000000000000000        0.0000000000000000        0.0000000000000000        0.0000000000000000        0.0000000000000000        0.0000000000000000        0.0000000000000000        0.0000000000000000        0.0000000000000000        0.0000000000000000        0.0000000000000000        0.0000000000000000        0.0000000000000000        0.0000000000000000        0.0000000000000000        0.0000000000000000        0.0000000000000000        0.0000000000000000        0.0000000000000000        0.0000000000000000        0.0000000000000000        0.0000000000000000        0.0000000000000000        0.0000000000000000        0.0000000000000000        0.0000000000000000        0.0000000000000000        0.0000000000000000        0.0000000000000000        0.0000000000000000        0.0000000000000000        0.0000000000000000        0.0000000000000000        0.0000000000000000        0.0000000000000000        0.0000000000000000        0.0000000000000000        0.0000000000000000        0.0000000000000000        0.0000000000000000        0.0000000000000000        0.0000000000000000        0.0000000000000000        0.0000000000000000        0.0000000000000000        0.0000000000000000        0.0000000000000000        0.0000000000000000        0.0000000000000000        0.0000000000000000        0.0000000000000000        0.0000000000000000        0.0000000000000000     
 SCALARS rho double
 LOOKUP_TABLE default
  0.43025233647840572       0.42619718506596627       0.42402346692916110       0.42336764155373330       0.42330969179479200       0.42333514963560098       0.42334924953572411       0.42334630189360839       0.42332848415925212       0.42329725395994905       0.42325320623415952       0.42319632603211721       0.42312608547911812       0.42304141190974581       0.42294053559964329       0.42282066784774902       0.42267741621121996       0.42250380627437523       0.42228874187505233       0.42201472219822844       0.42165468805778544       0.42116803147322585       0.42049609186363662       0.41955786128463951       0.41824705788629168       0.41643206512187897       0.41396029393903139       0.41066813909240840       0.40639679549851154       0.40101286730167207       0.39443121930902703       0.38663630239111929       0.37769766191145265       0.36777580457468767       0.35711608239571169       0.34603046910838081       0.33486952236534240       0.32398882245608535       0.31371523878024749       0.30431824946259878       0.29599031179724589       0.28883832452483893       0.28288606463631294       0.27808563601794173       0.27433479579195086       0.27149666154515828       0.26941866426757488       0.26794846193937055       0.26694557531622354       0.26628848947293865       0.26587770738672029       0.26563567374383923       0.26550462460587171       0.26544333275622384       0.26542349911938556       0.26542626629660676       0.26543904998692031       0.26545260695074968       0.26545794496500946       0.26544222625143027       0.26538201133429490       0.26523064075870945       0.26489355502045192       0.26417983302973203       0.26270935990575284       0.25974626816518931       0.25394510047429569       0.24313082774875877       0.22469743089854083       0.19787693189581798       0.16761968074467437       0.14375776041038807       0.13137716192978580       0.12687366591780050       0.12552175506471194       0.12514296980843906       0.12503898388566576       0.12501060961891139       0.12500288402705531       0.12500078308988996       0.12500021236200543       0.12500005750420598       0.12500001554398554       0.12500000419303073       0.12500000112834078       0.12500000030277761       0.12500000008098114       0.12500000002157785       0.12500000000572489       0.12500000000151154       0.12500000000039696       0.12500000000010353       0.12500000000002687       0.12500000000000688       0.12500000000000175       0.12500000000000044       0.12500000000000011       0.12500000000000000       0.12500000000000000       0.12500000000000000     
 SCALARS z double
 LOOKUP_TABLE default
   1.0000000000000000        1.0000000000000000        1.0000000000000000        1.0000000000000000        1.0000000000000000        1.0000000000000000        1.0000000000000000        1.0000000000000000        1.0000000000000000        1.0000000000000000        1.0000000000000000        1.0000000000000000        1.0000000000000000        1.0000000000000000        1.0000000000000000        1.0000000000000000        1.0000000000000000        1.0000000000000000        1.0000000000000000        1.0000000000000000        1.0000000000000000        1.0000000000000000        1.0000000000000000        1.0000000000000000        1.0000000000000000        1.0000000000000000        1.0000000000000000        1.0000000000000000        1.0000000000000000        1.0000000000000000        1.0000000000000000        1.0000000000000000        1.0000000000000000        1.0000000000000000        1.0000000000000000        1.0000000000000000        1.0000000000000000        1.0000000000000000        1.0000000000000000        1.0000000000000000        1.0000000000000000        1.0000000000000000        1.0000000000000000        1.0000000000000000        1.0000000000000000        1.0000000000000000        1.0000000000000000        1.0000000000000000        1.0000000000000000        1.0000000000000000        1.0000000000000000        1.0000000000000000        1.0000000000000000        1.0000000000000000        1.0000000000000000        1.0000000000000000        1.0000000000000000        1.0000000000000000        1.0000000000000000        1.0000000000000000        1.0000000000000000        1.0000000000000000        1.0000000000000000        1.0000000000000000        1.0000000000000000        1.0000000000000000        1.0000000000000000        1.0000000000000000        1.0000000000000000        1.0000000000000000        1.0000000000000000        1.0000000000000000        1.0000000000000000        1.0000000000000000        1.0000000000000000        1.0000000000000000        1.0000000000000000        1.0000000000000000        1.0000000000000000        1.0000000000000000        1.0000000000000000        1.0000000000000000        1.0000000000000000        1.0000000000000000        1.0000000000000000        1.0000000000000000        1.0000000000000000        1.0000000000000000        1.0000000000000000        1.0000000000000000        1.0000000000000000        1.0000000000000000        1.0000000000000000        1.0000000000000000        1.0000000000000000        1.0000000000000000        1.0000000000000000        1.0000000000000000        1.0000000000000000        1.0000000000000000     
 SCALARS p double
 LOOKUP_TABLE default
   30904.552415879436        30502.694445453759        30290.454151820322        30230.513788076390        30230.697154522906        30239.605984834790        30247.808496561167        30254.783377667718        30260.804545990686        30266.084764570482        30270.764422287350        30274.941494546427        30278.688659418502        30282.062362154469        30285.108391656922        30287.865296538064        30290.366102217889        30292.639215895470        30294.709263154247        30296.597921598674        30298.324472594901        30299.906010642735        30301.357548002205        30302.692224992759        30303.921603326646        30305.055898546601        30306.104090359491        30307.073984164250        30307.972328357417        30308.805010271841        30309.577270182261        30310.293875130039        30310.959250128177        30311.577596234012        30312.153009794511        30312.689586747645        30313.191486211243        30313.662943633277        30314.108245331998        30314.531685766116        30314.937525156052        30315.329956820875        30315.713088226232        30316.090938391466        30316.467454171307        30316.846546463657        30317.232142870424        30317.628242766048        30318.038938598416        30318.468322964327        30318.920109761533        30319.396603360485        30319.896237203513        30320.408042577157        30320.899632959819        30321.291648388422        30321.404169372712        30320.845485765258        30318.782937706583        30313.473562648960        30301.307724495156        30274.871571346772        30219.055660094815        30103.364490819455        29867.213687533971        29393.802432213328        28471.397264975520        26764.472885706327        23894.332588761066        19825.844869317109        15451.655063588247        12255.504135569416        10733.674373683292        10211.560668832803        10058.569553782889        10016.022612133182        10004.366938650761        10001.188332417558        10000.323015104481        10000.087706368315        10000.023784566723        10000.006440472698        10000.001740926502        10000.000469619441        10000.000126374167        10000.000033911087        10000.000009069889        10000.000002416724        10000.000000641192        10000.000000169295        10000.000000044456        10000.000000011603        10000.000000003007        10000.000000000771        10000.000000000196        10000.000000000049        10000.000000000013        10000.000000000004        10000.000000000000        10000.000000000000     
 SCALARS c double
 LOOKUP_TABLE default